<?xml version="1.0" encoding="UTF-8"?>

<!-- generated on 2023-04-18 14:12:16 by Eclipse SUMO GUI Version 1.15.0
<configuration xmlns:xsi="http://www.w3.org/2001/XMLSchema-instance" xsi:noNamespaceSchemaLocation="http://sumo.dlr.de/xsd/sumoConfiguration.xsd">

    <input>
        <net-file value="Z:\Users\708891\Desktop\APResearch\Simulations\threeLevelDiamond.net.xml"/>
        <route-files value="Z:\Users\708891\Desktop\APResearch\Simulations\unifiedDistribution.rou.xml"/>
    </input>

    <output>
        <tripinfo-output value="Z:\Users\708891\Desktop\APResearch\Simulations\output\threeLevelDiamond\threeLevelDiamondTripinfo3.xml"/>
        <collision-output value="Z:\Users\708891\Desktop\APResearch\Simulations\output\threeLevelDiamond\threeLevelDiamondCollision3.xml"/>
        <statistic-output value="Z:\Users\708891\Desktop\APResearch\Simulations\output\threeLevelDiamond\threeLevelDiamondNetworkStats3.xml"/>
    </output>

</configuration>
-->

<tripinfos xmlns:xsi="http://www.w3.org/2001/XMLSchema-instance" xsi:noNamespaceSchemaLocation="http://sumo.dlr.de/xsd/tripinfo_file.xsd">
    <tripinfo id="S-N-sedan.0" depart="0.00" departLane="+S_1" departPos="5.10" departSpeed="0.00" departDelay="0.00" arrival="31.00" arrivalLane="-N_1" arrivalPos="112.02" arrivalSpeed="13.52" duration="31.00" routeLength="394.90" waitingTime="0.00" waitingCount="0" stopTime="0.00" timeLoss="3.67" rerouteNo="1" devices="tripinfo_S-N-sedan.0 routing_S-N-sedan.0" vType="sedan" speedFactor="1.05" vaporized=""/>
    <tripinfo id="W-E-sedan.0" depart="3.00" departLane="+W_1" departPos="5.10" departSpeed="0.00" departDelay="3.00" arrival="34.00" arrivalLane="-E_2" arrivalPos="112.02" arrivalSpeed="14.47" duration="31.00" routeLength="394.90" waitingTime="0.00" waitingCount="0" stopTime="0.00" timeLoss="4.56" rerouteNo="1" devices="tripinfo_W-E-sedan.0 routing_W-E-sedan.0" vType="sedan" speedFactor="1.09" vaporized=""/>
    <tripinfo id="N-W-sedan.0" depart="6.00" departLane="+N_1" departPos="5.10" departSpeed="0.00" departDelay="6.00" arrival="37.00" arrivalLane="-W_1" arrivalPos="112.02" arrivalSpeed="13.61" duration="31.00" routeLength="349.34" waitingTime="0.00" waitingCount="0" stopTime="0.00" timeLoss="5.17" rerouteNo="1" devices="tripinfo_N-W-sedan.0 routing_N-W-sedan.0" vType="sedan" speedFactor="1.01" vaporized=""/>
    <tripinfo id="S-E-sedan.0" depart="3.00" departLane="+S_1" departPos="5.10" departSpeed="0.00" departDelay="3.00" arrival="37.00" arrivalLane="-E_1" arrivalPos="112.02" arrivalSpeed="12.15" duration="34.00" routeLength="349.34" waitingTime="0.00" waitingCount="0" stopTime="0.00" timeLoss="4.92" rerouteNo="1" devices="tripinfo_S-E-sedan.0 routing_S-E-sedan.0" vType="sedan" speedFactor="0.89" vaporized=""/>
    <tripinfo id="N-S-sedan.0" depart="3.00" departLane="+N_1" departPos="5.10" departSpeed="0.00" departDelay="3.00" arrival="39.00" arrivalLane="-S_1" arrivalPos="112.02" arrivalSpeed="12.62" duration="36.00" routeLength="394.90" waitingTime="0.00" waitingCount="0" stopTime="0.00" timeLoss="4.99" rerouteNo="1" devices="tripinfo_N-S-sedan.0 routing_N-S-sedan.0" vType="sedan" speedFactor="0.94" vaporized=""/>
    <tripinfo id="N-E-sedan.0" depart="0.00" departLane="+N_1" departPos="5.10" departSpeed="0.00" departDelay="0.00" arrival="40.00" arrivalLane="-E_1" arrivalPos="112.02" arrivalSpeed="13.44" duration="40.00" routeLength="499.34" waitingTime="0.00" waitingCount="0" stopTime="0.00" timeLoss="6.04" rerouteNo="1" devices="tripinfo_N-E-sedan.0 routing_N-E-sedan.0" vType="sedan" speedFactor="1.06" vaporized=""/>
    <tripinfo id="N-S-sedan.1" depart="12.00" departLane="+N_1" departPos="5.10" departSpeed="0.00" departDelay="11.00" arrival="42.00" arrivalLane="-S_1" arrivalPos="112.02" arrivalSpeed="15.33" duration="30.00" routeLength="394.90" waitingTime="0.00" waitingCount="0" stopTime="0.00" timeLoss="4.63" rerouteNo="1" devices="tripinfo_N-S-sedan.1 routing_N-S-sedan.1" vType="sedan" speedFactor="1.12" vaporized=""/>
    <tripinfo id="S-N-sedan.1" depart="9.00" departLane="+S_1" departPos="5.10" departSpeed="0.00" departDelay="8.00" arrival="44.00" arrivalLane="-N_1" arrivalPos="112.02" arrivalSpeed="12.50" duration="35.00" routeLength="394.90" waitingTime="0.00" waitingCount="0" stopTime="0.00" timeLoss="3.82" rerouteNo="1" devices="tripinfo_S-N-sedan.1 routing_S-N-sedan.1" vType="sedan" speedFactor="0.94" vaporized=""/>
    <tripinfo id="E-W-sedan.0" depart="6.00" departLane="+E_1" departPos="5.10" departSpeed="0.00" departDelay="6.00" arrival="45.00" arrivalLane="-W_1" arrivalPos="112.02" arrivalSpeed="10.94" duration="39.00" routeLength="394.90" waitingTime="0.00" waitingCount="0" stopTime="0.00" timeLoss="4.39" rerouteNo="1" devices="tripinfo_E-W-sedan.0 routing_E-W-sedan.0" vType="sedan" speedFactor="0.83" vaporized=""/>
    <tripinfo id="W-E-sedan.1" depart="12.00" departLane="+W_1" departPos="5.10" departSpeed="0.00" departDelay="11.00" arrival="46.00" arrivalLane="-E_1" arrivalPos="112.02" arrivalSpeed="12.77" duration="34.00" routeLength="394.90" waitingTime="0.00" waitingCount="0" stopTime="0.00" timeLoss="4.41" rerouteNo="1" devices="tripinfo_W-E-sedan.1 routing_W-E-sedan.1" vType="sedan" speedFactor="0.97" vaporized=""/>
    <tripinfo id="W-S-sedan.0" depart="6.00" departLane="+W_1" departPos="5.10" departSpeed="0.00" departDelay="6.00" arrival="47.00" arrivalLane="-S_1" arrivalPos="112.02" arrivalSpeed="13.44" duration="41.00" routeLength="349.34" waitingTime="0.00" waitingCount="0" stopTime="0.00" timeLoss="16.10" rerouteNo="1" devices="tripinfo_W-S-sedan.0 routing_W-S-sedan.0" vType="sedan" speedFactor="1.03" vaporized=""/>
    <tripinfo id="S-N-sedan.2" depart="18.00" departLane="+S_1" departPos="5.10" departSpeed="0.00" departDelay="16.00" arrival="48.00" arrivalLane="-N_1" arrivalPos="112.02" arrivalSpeed="16.19" duration="30.00" routeLength="394.90" waitingTime="0.00" waitingCount="0" stopTime="0.00" timeLoss="4.98" rerouteNo="1" devices="tripinfo_S-N-sedan.2 routing_S-N-sedan.2" vType="sedan" speedFactor="1.18" vaporized=""/>
    <tripinfo id="E-W-sedan.1" depart="15.00" departLane="+E_1" departPos="5.10" departSpeed="0.00" departDelay="14.00" arrival="50.00" arrivalLane="-W_1" arrivalPos="112.02" arrivalSpeed="12.65" duration="35.00" routeLength="394.90" waitingTime="0.00" waitingCount="0" stopTime="0.00" timeLoss="4.36" rerouteNo="1" devices="tripinfo_E-W-sedan.1 routing_E-W-sedan.1" vType="sedan" speedFactor="0.94" vaporized=""/>
    <tripinfo id="W-S-sedan.1" depart="15.00" departLane="+W_1" departPos="5.10" departSpeed="0.00" departDelay="14.00" arrival="50.00" arrivalLane="-S_1" arrivalPos="112.02" arrivalSpeed="11.36" duration="35.00" routeLength="349.34" waitingTime="0.00" waitingCount="0" stopTime="0.00" timeLoss="6.25" rerouteNo="1" devices="tripinfo_W-S-sedan.1 routing_W-S-sedan.1" vType="sedan" speedFactor="0.89" vaporized=""/>
    <tripinfo id="W-E-sedan.2" depart="21.00" departLane="+W_1" departPos="5.10" departSpeed="0.00" departDelay="19.00" arrival="54.00" arrivalLane="-E_1" arrivalPos="112.02" arrivalSpeed="13.31" duration="33.00" routeLength="394.90" waitingTime="0.00" waitingCount="0" stopTime="0.00" timeLoss="4.39" rerouteNo="1" devices="tripinfo_W-E-sedan.2 routing_W-E-sedan.2" vType="sedan" speedFactor="0.99" vaporized=""/>
    <tripinfo id="N-S-sedan.2" depart="21.00" departLane="+N_1" departPos="5.10" departSpeed="0.00" departDelay="19.00" arrival="58.00" arrivalLane="-S_1" arrivalPos="112.02" arrivalSpeed="11.92" duration="37.00" routeLength="394.90" waitingTime="0.00" waitingCount="0" stopTime="0.00" timeLoss="4.37" rerouteNo="1" devices="tripinfo_N-S-sedan.2 routing_N-S-sedan.2" vType="sedan" speedFactor="0.87" vaporized=""/>
    <tripinfo id="S-N-sedan.3" depart="27.00" departLane="+S_1" departPos="5.10" departSpeed="0.00" departDelay="24.00" arrival="58.00" arrivalLane="-N_1" arrivalPos="112.02" arrivalSpeed="14.93" duration="31.00" routeLength="394.90" waitingTime="0.00" waitingCount="0" stopTime="0.00" timeLoss="4.57" rerouteNo="1" devices="tripinfo_S-N-sedan.3 routing_S-N-sedan.3" vType="sedan" speedFactor="1.09" vaporized=""/>
    <tripinfo id="E-W-sedan.2" depart="24.00" departLane="+E_1" departPos="5.10" departSpeed="0.00" departDelay="22.00" arrival="59.00" arrivalLane="-W_1" arrivalPos="112.02" arrivalSpeed="12.90" duration="35.00" routeLength="394.90" waitingTime="0.00" waitingCount="0" stopTime="0.00" timeLoss="4.28" rerouteNo="1" devices="tripinfo_E-W-sedan.2 routing_E-W-sedan.2" vType="sedan" speedFactor="0.93" vaporized=""/>
    <tripinfo id="N-S-sedan.3" depart="30.00" departLane="+N_1" departPos="5.10" departSpeed="0.00" departDelay="27.00" arrival="60.00" arrivalLane="-S_1" arrivalPos="112.02" arrivalSpeed="16.29" duration="30.00" routeLength="394.90" waitingTime="0.00" waitingCount="0" stopTime="0.00" timeLoss="5.31" rerouteNo="1" devices="tripinfo_N-S-sedan.3 routing_N-S-sedan.3" vType="sedan" speedFactor="1.18" vaporized=""/>
    <tripinfo id="W-E-sedan.3" depart="30.00" departLane="+W_1" departPos="5.10" departSpeed="0.00" departDelay="27.00" arrival="63.00" arrivalLane="-E_1" arrivalPos="112.02" arrivalSpeed="13.81" duration="33.00" routeLength="394.90" waitingTime="0.00" waitingCount="0" stopTime="0.00" timeLoss="4.28" rerouteNo="1" devices="tripinfo_W-E-sedan.3 routing_W-E-sedan.3" vType="sedan" speedFactor="1.00" vaporized=""/>
    <tripinfo id="S-E-sedan.1" depart="12.00" departLane="+S_1" departPos="5.10" departSpeed="0.00" departDelay="11.00" arrival="66.00" arrivalLane="-E_1" arrivalPos="112.02" arrivalSpeed="15.07" duration="54.00" routeLength="349.34" waitingTime="20.00" waitingCount="1" stopTime="0.00" timeLoss="31.68" rerouteNo="1" devices="tripinfo_S-E-sedan.1 routing_S-E-sedan.1" vType="sedan" speedFactor="1.16" vaporized=""/>
    <tripinfo id="E-W-sedan.3" depart="33.00" departLane="+E_1" departPos="5.10" departSpeed="0.00" departDelay="30.00" arrival="67.00" arrivalLane="-W_1" arrivalPos="112.02" arrivalSpeed="12.18" duration="34.00" routeLength="394.90" waitingTime="0.00" waitingCount="0" stopTime="0.00" timeLoss="3.71" rerouteNo="1" devices="tripinfo_E-W-sedan.3 routing_E-W-sedan.3" vType="sedan" speedFactor="0.96" vaporized=""/>
    <tripinfo id="E-S-sedan.0" depart="3.00" departLane="+E_1" departPos="5.10" departSpeed="0.00" departDelay="3.00" arrival="68.00" arrivalLane="-S_1" arrivalPos="112.02" arrivalSpeed="14.01" duration="65.00" routeLength="499.34" waitingTime="17.00" waitingCount="1" stopTime="0.00" timeLoss="29.71" rerouteNo="1" devices="tripinfo_E-S-sedan.0 routing_E-S-sedan.0" vType="sedan" speedFactor="1.03" vaporized=""/>
    <tripinfo id="N-W-sedan.2" depart="24.00" departLane="+N_1" departPos="5.10" departSpeed="0.00" departDelay="22.00" arrival="70.00" arrivalLane="-W_1" arrivalPos="112.02" arrivalSpeed="12.23" duration="46.00" routeLength="349.34" waitingTime="7.00" waitingCount="1" stopTime="0.00" timeLoss="18.44" rerouteNo="1" devices="tripinfo_N-W-sedan.2 routing_N-W-sedan.2" vType="sedan" speedFactor="0.92" vaporized=""/>
    <tripinfo id="S-N-sedan.4" depart="36.00" departLane="+S_1" departPos="5.10" departSpeed="0.00" departDelay="32.00" arrival="70.00" arrivalLane="-N_1" arrivalPos="112.02" arrivalSpeed="13.42" duration="34.00" routeLength="394.90" waitingTime="0.00" waitingCount="0" stopTime="0.00" timeLoss="4.86" rerouteNo="1" devices="tripinfo_S-N-sedan.4 routing_S-N-sedan.4" vType="sedan" speedFactor="1.00" vaporized=""/>
    <tripinfo id="W-E-sedan.4" depart="39.00" departLane="+W_1" departPos="5.10" departSpeed="0.00" departDelay="35.00" arrival="71.00" arrivalLane="-E_1" arrivalPos="112.02" arrivalSpeed="13.57" duration="32.00" routeLength="394.90" waitingTime="0.00" waitingCount="0" stopTime="0.00" timeLoss="3.98" rerouteNo="1" devices="tripinfo_W-E-sedan.4 routing_W-E-sedan.4" vType="sedan" speedFactor="1.02" vaporized=""/>
    <tripinfo id="E-W-sedan.4" depart="42.00" departLane="+E_1" departPos="5.10" departSpeed="0.00" departDelay="38.00" arrival="72.00" arrivalLane="-W_1" arrivalPos="112.02" arrivalSpeed="14.44" duration="30.00" routeLength="394.90" waitingTime="0.00" waitingCount="0" stopTime="0.00" timeLoss="4.00" rerouteNo="1" devices="tripinfo_E-W-sedan.4 routing_E-W-sedan.4" vType="sedan" speedFactor="1.10" vaporized=""/>
    <tripinfo id="S-E-sedan.3" depart="30.00" departLane="+S_1" departPos="5.10" departSpeed="0.00" departDelay="27.00" arrival="76.00" arrivalLane="-E_1" arrivalPos="112.02" arrivalSpeed="13.68" duration="46.00" routeLength="349.34" waitingTime="4.00" waitingCount="2" stopTime="0.00" timeLoss="21.59" rerouteNo="1" devices="tripinfo_S-E-sedan.3 routing_S-E-sedan.3" vType="sedan" speedFactor="1.04" vaporized=""/>
    <tripinfo id="N-S-sedan.4" depart="39.00" departLane="+N_1" departPos="5.10" departSpeed="0.00" departDelay="35.00" arrival="77.00" arrivalLane="-S_1" arrivalPos="112.02" arrivalSpeed="10.60" duration="38.00" routeLength="394.90" waitingTime="0.00" waitingCount="0" stopTime="0.00" timeLoss="4.47" rerouteNo="1" devices="tripinfo_N-S-sedan.4 routing_N-S-sedan.4" vType="sedan" speedFactor="0.85" vaporized=""/>
    <tripinfo id="N-S-sedan.5" depart="48.00" departLane="+N_1" departPos="5.10" departSpeed="0.00" departDelay="43.00" arrival="79.00" arrivalLane="-S_1" arrivalPos="112.02" arrivalSpeed="15.23" duration="31.00" routeLength="394.90" waitingTime="0.00" waitingCount="0" stopTime="0.00" timeLoss="5.09" rerouteNo="1" devices="tripinfo_N-S-sedan.5 routing_N-S-sedan.5" vType="sedan" speedFactor="1.12" vaporized=""/>
    <tripinfo id="S-N-sedan.5" depart="45.00" departLane="+S_1" departPos="5.10" departSpeed="0.00" departDelay="40.00" arrival="81.00" arrivalLane="-N_1" arrivalPos="112.02" arrivalSpeed="12.50" duration="36.00" routeLength="394.90" waitingTime="0.00" waitingCount="0" stopTime="0.00" timeLoss="4.34" rerouteNo="1" devices="tripinfo_S-N-sedan.5 routing_S-N-sedan.5" vType="sedan" speedFactor="0.91" vaporized=""/>
    <tripinfo id="W-E-sedan.5" depart="48.00" departLane="+W_1" departPos="5.10" departSpeed="0.00" departDelay="43.00" arrival="81.00" arrivalLane="-E_1" arrivalPos="112.02" arrivalSpeed="13.73" duration="33.00" routeLength="394.90" waitingTime="0.00" waitingCount="0" stopTime="0.00" timeLoss="4.58" rerouteNo="1" devices="tripinfo_W-E-sedan.5 routing_W-E-sedan.5" vType="sedan" speedFactor="1.02" vaporized=""/>
    <tripinfo id="W-S-sedan.2" depart="24.00" departLane="+W_1" departPos="5.10" departSpeed="0.00" departDelay="22.00" arrival="83.00" arrivalLane="-S_1" arrivalPos="112.02" arrivalSpeed="13.86" duration="59.00" routeLength="349.34" waitingTime="24.00" waitingCount="1" stopTime="0.00" timeLoss="33.80" rerouteNo="1" devices="tripinfo_W-S-sedan.2 routing_W-S-sedan.2" vType="sedan" speedFactor="1.02" vaporized=""/>
    <tripinfo id="S-N-sedan.6" depart="54.00" departLane="+S_1" departPos="5.10" departSpeed="0.00" departDelay="48.00" arrival="87.00" arrivalLane="-N_1" arrivalPos="112.02" arrivalSpeed="12.92" duration="33.00" routeLength="394.90" waitingTime="0.00" waitingCount="0" stopTime="0.00" timeLoss="4.70" rerouteNo="1" devices="tripinfo_S-N-sedan.6 routing_S-N-sedan.6" vType="sedan" speedFactor="1.01" vaporized=""/>
    <tripinfo id="E-W-sedan.5" depart="51.00" departLane="+E_1" departPos="5.10" departSpeed="0.00" departDelay="46.00" arrival="89.00" arrivalLane="-W_1" arrivalPos="112.02" arrivalSpeed="12.16" duration="38.00" routeLength="394.90" waitingTime="1.00" waitingCount="1" stopTime="0.00" timeLoss="5.69" rerouteNo="1" devices="tripinfo_E-W-sedan.5 routing_E-W-sedan.5" vType="sedan" speedFactor="0.88" vaporized=""/>
    <tripinfo id="N-S-sedan.6" depart="57.00" departLane="+N_1" departPos="5.10" departSpeed="0.00" departDelay="51.00" arrival="89.00" arrivalLane="-S_1" arrivalPos="112.02" arrivalSpeed="14.58" duration="32.00" routeLength="394.90" waitingTime="0.00" waitingCount="0" stopTime="0.00" timeLoss="4.13" rerouteNo="1" devices="tripinfo_N-S-sedan.6 routing_N-S-sedan.6" vType="sedan" speedFactor="1.06" vaporized=""/>
    <tripinfo id="W-E-sedan.6" depart="57.00" departLane="+W_1" departPos="5.10" departSpeed="0.00" departDelay="51.00" arrival="90.00" arrivalLane="-E_1" arrivalPos="112.02" arrivalSpeed="13.00" duration="33.00" routeLength="394.90" waitingTime="0.00" waitingCount="0" stopTime="0.00" timeLoss="4.17" rerouteNo="1" devices="tripinfo_W-E-sedan.6 routing_W-E-sedan.6" vType="sedan" speedFactor="1.02" vaporized=""/>
    <tripinfo id="W-N-sedan.0" depart="0.00" departLane="+W_1" departPos="5.10" departSpeed="0.00" departDelay="0.00" arrival="93.00" arrivalLane="-N_1" arrivalPos="112.02" arrivalSpeed="11.08" duration="93.00" routeLength="499.34" waitingTime="34.00" waitingCount="2" stopTime="0.00" timeLoss="50.21" rerouteNo="1" devices="tripinfo_W-N-sedan.0 routing_W-N-sedan.0" vType="sedan" speedFactor="0.86" vaporized=""/>
    <tripinfo id="W-S-sedan.3" depart="33.00" departLane="+W_1" departPos="5.10" departSpeed="0.00" departDelay="30.00" arrival="94.00" arrivalLane="-S_1" arrivalPos="112.02" arrivalSpeed="11.27" duration="61.00" routeLength="349.34" waitingTime="23.00" waitingCount="1" stopTime="0.00" timeLoss="32.65" rerouteNo="1" devices="tripinfo_W-S-sedan.3 routing_W-S-sedan.3" vType="sedan" speedFactor="0.90" vaporized=""/>
    <tripinfo id="E-W-sedan.6" depart="61.00" departLane="+E_1" departPos="5.10" departSpeed="0.00" departDelay="55.00" arrival="95.00" arrivalLane="-W_1" arrivalPos="112.02" arrivalSpeed="12.63" duration="34.00" routeLength="394.90" waitingTime="0.00" waitingCount="0" stopTime="0.00" timeLoss="4.77" rerouteNo="1" devices="tripinfo_E-W-sedan.6 routing_E-W-sedan.6" vType="sedan" speedFactor="0.98" vaporized=""/>
    <tripinfo id="S-N-sedan.7" depart="63.00" departLane="+S_1" departPos="5.10" departSpeed="0.00" departDelay="56.00" arrival="95.00" arrivalLane="-N_1" arrivalPos="112.02" arrivalSpeed="13.30" duration="32.00" routeLength="394.90" waitingTime="0.00" waitingCount="0" stopTime="0.00" timeLoss="3.45" rerouteNo="1" devices="tripinfo_S-N-sedan.7 routing_S-N-sedan.7" vType="sedan" speedFactor="1.02" vaporized=""/>
    <tripinfo id="W-S-sedan.5" depart="51.00" departLane="+W_1" departPos="5.10" departSpeed="0.00" departDelay="46.00" arrival="97.00" arrivalLane="-S_1" arrivalPos="112.02" arrivalSpeed="12.58" duration="46.00" routeLength="349.34" waitingTime="7.00" waitingCount="1" stopTime="0.00" timeLoss="19.59" rerouteNo="1" devices="tripinfo_W-S-sedan.5 routing_W-S-sedan.5" vType="sedan" speedFactor="0.97" vaporized=""/>
    <tripinfo id="W-E-sedan.7" depart="66.00" departLane="+W_1" departPos="5.10" departSpeed="0.00" departDelay="59.00" arrival="97.00" arrivalLane="-E_1" arrivalPos="112.02" arrivalSpeed="14.86" duration="31.00" routeLength="394.90" waitingTime="0.00" waitingCount="0" stopTime="0.00" timeLoss="4.18" rerouteNo="1" devices="tripinfo_W-E-sedan.7 routing_W-E-sedan.7" vType="sedan" speedFactor="1.09" vaporized=""/>
    <tripinfo id="N-S-sedan.7" depart="66.00" departLane="+N_1" departPos="5.10" departSpeed="0.00" departDelay="59.00" arrival="100.00" arrivalLane="-S_1" arrivalPos="112.02" arrivalSpeed="12.95" duration="34.00" routeLength="394.90" waitingTime="0.00" waitingCount="0" stopTime="0.00" timeLoss="4.65" rerouteNo="1" devices="tripinfo_N-S-sedan.7 routing_N-S-sedan.7" vType="sedan" speedFactor="0.98" vaporized=""/>
    <tripinfo id="S-E-sedan.4" depart="39.00" departLane="+S_1" departPos="5.10" departSpeed="0.00" departDelay="35.00" arrival="101.00" arrivalLane="-E_1" arrivalPos="112.02" arrivalSpeed="13.76" duration="62.00" routeLength="349.34" waitingTime="19.00" waitingCount="1" stopTime="0.00" timeLoss="35.83" rerouteNo="1" devices="tripinfo_S-E-sedan.4 routing_S-E-sedan.4" vType="sedan" speedFactor="1.00" vaporized=""/>
    <tripinfo id="N-E-sedan.1" depart="9.00" departLane="+N_1" departPos="5.10" departSpeed="0.00" departDelay="8.00" arrival="102.00" arrivalLane="-E_1" arrivalPos="112.02" arrivalSpeed="13.57" duration="93.00" routeLength="499.34" waitingTime="36.00" waitingCount="3" stopTime="0.00" timeLoss="58.54" rerouteNo="1" devices="tripinfo_N-E-sedan.1 routing_N-E-sedan.1" vType="sedan" speedFactor="1.05" vaporized=""/>
    <tripinfo id="E-W-sedan.7" depart="70.00" departLane="+E_1" departPos="5.10" departSpeed="0.00" departDelay="63.00" arrival="103.00" arrivalLane="-W_1" arrivalPos="112.02" arrivalSpeed="13.96" duration="33.00" routeLength="394.90" waitingTime="0.00" waitingCount="0" stopTime="0.00" timeLoss="4.50" rerouteNo="1" devices="tripinfo_E-W-sedan.7 routing_E-W-sedan.7" vType="sedan" speedFactor="1.02" vaporized=""/>
    <tripinfo id="N-E-sedan.3" depart="27.00" departLane="+N_1" departPos="5.10" departSpeed="0.00" departDelay="24.00" arrival="105.00" arrivalLane="-E_1" arrivalPos="112.02" arrivalSpeed="12.47" duration="78.00" routeLength="499.34" waitingTime="17.00" waitingCount="3" stopTime="0.00" timeLoss="40.85" rerouteNo="1" devices="tripinfo_N-E-sedan.3 routing_N-E-sedan.3" vType="sedan" speedFactor="0.97" vaporized=""/>
    <tripinfo id="N-W-sedan.3" depart="33.00" departLane="+N_1" departPos="5.10" departSpeed="0.00" departDelay="30.00" arrival="106.00" arrivalLane="-W_1" arrivalPos="112.02" arrivalSpeed="14.73" duration="73.00" routeLength="349.34" waitingTime="32.00" waitingCount="2" stopTime="0.00" timeLoss="49.80" rerouteNo="1" devices="tripinfo_N-W-sedan.3 routing_N-W-sedan.3" vType="sedan" speedFactor="1.10" vaporized=""/>
    <tripinfo id="S-N-sedan.8" depart="71.00" departLane="+S_1" departPos="5.10" departSpeed="0.00" departDelay="63.00" arrival="106.00" arrivalLane="-N_1" arrivalPos="112.02" arrivalSpeed="13.09" duration="35.00" routeLength="394.90" waitingTime="0.00" waitingCount="0" stopTime="0.00" timeLoss="5.01" rerouteNo="1" devices="tripinfo_S-N-sedan.8 routing_S-N-sedan.8" vType="sedan" speedFactor="0.97" vaporized=""/>
    <tripinfo id="N-W-sedan.5" depart="51.00" departLane="+N_1" departPos="5.10" departSpeed="0.00" departDelay="46.00" arrival="108.00" arrivalLane="-W_1" arrivalPos="112.02" arrivalSpeed="13.31" duration="57.00" routeLength="349.34" waitingTime="21.00" waitingCount="1" stopTime="0.00" timeLoss="32.03" rerouteNo="1" devices="tripinfo_N-W-sedan.5 routing_N-W-sedan.5" vType="sedan" speedFactor="1.02" vaporized=""/>
    <tripinfo id="W-E-sedan.8" depart="75.00" departLane="+W_1" departPos="5.10" departSpeed="0.00" departDelay="67.00" arrival="108.00" arrivalLane="-E_1" arrivalPos="112.02" arrivalSpeed="14.05" duration="33.00" routeLength="394.90" waitingTime="0.00" waitingCount="0" stopTime="0.00" timeLoss="4.80" rerouteNo="1" devices="tripinfo_W-E-sedan.8 routing_W-E-sedan.8" vType="sedan" speedFactor="1.01" vaporized=""/>
    <tripinfo id="N-S-sedan.8" depart="75.00" departLane="+N_1" departPos="5.10" departSpeed="0.00" departDelay="67.00" arrival="111.00" arrivalLane="-S_1" arrivalPos="112.02" arrivalSpeed="12.59" duration="36.00" routeLength="394.90" waitingTime="0.00" waitingCount="0" stopTime="0.00" timeLoss="4.02" rerouteNo="1" devices="tripinfo_N-S-sedan.8 routing_N-S-sedan.8" vType="sedan" speedFactor="0.91" vaporized=""/>
    <tripinfo id="S-N-sedan.9" depart="80.00" departLane="+S_1" departPos="5.10" departSpeed="0.00" departDelay="71.00" arrival="111.00" arrivalLane="-N_1" arrivalPos="112.02" arrivalSpeed="15.09" duration="31.00" routeLength="394.90" waitingTime="0.00" waitingCount="0" stopTime="0.00" timeLoss="4.92" rerouteNo="1" devices="tripinfo_S-N-sedan.9 routing_S-N-sedan.9" vType="sedan" speedFactor="1.10" vaporized=""/>
    <tripinfo id="E-W-sedan.8" depart="79.00" departLane="+E_1" departPos="5.10" departSpeed="0.00" departDelay="71.00" arrival="114.00" arrivalLane="-W_1" arrivalPos="112.02" arrivalSpeed="12.62" duration="35.00" routeLength="394.90" waitingTime="0.00" waitingCount="0" stopTime="0.00" timeLoss="4.80" rerouteNo="1" devices="tripinfo_E-W-sedan.8 routing_E-W-sedan.8" vType="sedan" speedFactor="0.96" vaporized=""/>
    <tripinfo id="W-E-sedan.9" depart="84.00" departLane="+W_1" departPos="5.10" departSpeed="0.00" departDelay="75.00" arrival="117.00" arrivalLane="-E_1" arrivalPos="112.02" arrivalSpeed="13.31" duration="33.00" routeLength="394.90" waitingTime="0.00" waitingCount="0" stopTime="0.00" timeLoss="3.95" rerouteNo="1" devices="tripinfo_W-E-sedan.9 routing_W-E-sedan.9" vType="sedan" speedFactor="0.99" vaporized=""/>
    <tripinfo id="N-S-sedan.9" depart="84.00" departLane="+N_1" departPos="5.10" departSpeed="0.00" departDelay="75.00" arrival="119.00" arrivalLane="-S_1" arrivalPos="112.02" arrivalSpeed="13.21" duration="35.00" routeLength="394.90" waitingTime="0.00" waitingCount="0" stopTime="0.00" timeLoss="4.39" rerouteNo="1" devices="tripinfo_N-S-sedan.9 routing_N-S-sedan.9" vType="sedan" speedFactor="0.96" vaporized=""/>
    <tripinfo id="E-W-sedan.9" depart="88.00" departLane="+E_1" departPos="5.10" departSpeed="0.00" departDelay="79.00" arrival="121.00" arrivalLane="-W_1" arrivalPos="112.02" arrivalSpeed="12.97" duration="33.00" routeLength="394.90" waitingTime="0.00" waitingCount="0" stopTime="0.00" timeLoss="4.19" rerouteNo="1" devices="tripinfo_E-W-sedan.9 routing_E-W-sedan.9" vType="sedan" speedFactor="1.01" vaporized=""/>
    <tripinfo id="S-N-sedan.10" depart="89.00" departLane="+S_1" departPos="5.10" departSpeed="0.00" departDelay="79.00" arrival="122.00" arrivalLane="-N_1" arrivalPos="112.02" arrivalSpeed="13.73" duration="33.00" routeLength="394.90" waitingTime="0.00" waitingCount="0" stopTime="0.00" timeLoss="4.92" rerouteNo="1" devices="tripinfo_S-N-sedan.10 routing_S-N-sedan.10" vType="sedan" speedFactor="1.03" vaporized=""/>
    <tripinfo id="N-S-sedan.10" depart="93.00" departLane="+N_1" departPos="5.10" departSpeed="0.00" departDelay="83.00" arrival="124.00" arrivalLane="-S_1" arrivalPos="112.02" arrivalSpeed="14.73" duration="31.00" routeLength="394.90" waitingTime="0.00" waitingCount="0" stopTime="0.00" timeLoss="4.53" rerouteNo="1" devices="tripinfo_N-S-sedan.10 routing_N-S-sedan.10" vType="sedan" speedFactor="1.10" vaporized=""/>
    <tripinfo id="W-N-sedan.2" depart="18.00" departLane="+W_1" departPos="5.10" departSpeed="0.00" departDelay="16.00" arrival="125.00" arrivalLane="-N_1" arrivalPos="112.02" arrivalSpeed="15.63" duration="107.00" routeLength="499.34" waitingTime="59.00" waitingCount="2" stopTime="0.00" timeLoss="75.74" rerouteNo="1" devices="tripinfo_W-N-sedan.2 routing_W-N-sedan.2" vType="sedan" speedFactor="1.17" vaporized=""/>
    <tripinfo id="W-E-sedan.10" depart="93.00" departLane="+W_1" departPos="5.10" departSpeed="0.00" departDelay="83.00" arrival="125.00" arrivalLane="-E_1" arrivalPos="112.02" arrivalSpeed="13.83" duration="32.00" routeLength="394.90" waitingTime="0.00" waitingCount="0" stopTime="0.00" timeLoss="4.43" rerouteNo="1" devices="tripinfo_W-E-sedan.10 routing_W-E-sedan.10" vType="sedan" speedFactor="1.03" vaporized=""/>
    <tripinfo id="E-W-sedan.10" depart="97.00" departLane="+E_1" departPos="5.10" departSpeed="0.00" departDelay="87.00" arrival="127.00" arrivalLane="-W_1" arrivalPos="112.02" arrivalSpeed="15.28" duration="30.00" routeLength="394.90" waitingTime="0.00" waitingCount="0" stopTime="0.00" timeLoss="4.69" rerouteNo="1" devices="tripinfo_E-W-sedan.10 routing_E-W-sedan.10" vType="sedan" speedFactor="1.15" vaporized=""/>
    <tripinfo id="E-N-sedan.2" depart="18.00" departLane="+E_1" departPos="5.10" departSpeed="0.00" departDelay="16.00" arrival="128.00" arrivalLane="-N_1" arrivalPos="112.02" arrivalSpeed="13.03" duration="110.00" routeLength="349.34" waitingTime="63.00" waitingCount="3" stopTime="0.00" timeLoss="83.40" rerouteNo="1" devices="tripinfo_E-N-sedan.2 routing_E-N-sedan.2" vType="sedan" speedFactor="0.95" vaporized=""/>
    <tripinfo id="W-S-sedan.6" depart="60.00" departLane="+W_1" departPos="5.10" departSpeed="0.00" departDelay="54.00" arrival="129.00" arrivalLane="-S_1" arrivalPos="112.02" arrivalSpeed="12.36" duration="69.00" routeLength="349.34" waitingTime="27.00" waitingCount="2" stopTime="0.00" timeLoss="42.67" rerouteNo="1" devices="tripinfo_W-S-sedan.6 routing_W-S-sedan.6" vType="sedan" speedFactor="0.97" vaporized=""/>
    <tripinfo id="N-E-sedan.5" depart="45.00" departLane="+N_1" departPos="5.10" departSpeed="0.00" departDelay="40.00" arrival="130.00" arrivalLane="-E_1" arrivalPos="112.02" arrivalSpeed="13.82" duration="85.00" routeLength="499.34" waitingTime="24.00" waitingCount="2" stopTime="0.00" timeLoss="51.19" rerouteNo="1" devices="tripinfo_N-E-sedan.5 routing_N-E-sedan.5" vType="sedan" speedFactor="1.08" vaporized=""/>
    <tripinfo id="W-S-sedan.8" depart="78.00" departLane="+W_1" departPos="5.10" departSpeed="0.00" departDelay="70.00" arrival="131.00" arrivalLane="-S_1" arrivalPos="112.02" arrivalSpeed="13.77" duration="53.00" routeLength="349.34" waitingTime="17.00" waitingCount="1" stopTime="0.00" timeLoss="28.00" rerouteNo="1" devices="tripinfo_W-S-sedan.8 routing_W-S-sedan.8" vType="sedan" speedFactor="1.03" vaporized=""/>
    <tripinfo id="S-N-sedan.11" depart="98.00" departLane="+S_1" departPos="5.10" departSpeed="0.00" departDelay="87.00" arrival="131.00" arrivalLane="-N_1" arrivalPos="112.02" arrivalSpeed="13.75" duration="33.00" routeLength="394.90" waitingTime="0.00" waitingCount="0" stopTime="0.00" timeLoss="4.03" rerouteNo="1" devices="tripinfo_S-N-sedan.11 routing_S-N-sedan.11" vType="sedan" speedFactor="1.00" vaporized=""/>
    <tripinfo id="S-W-sedan.1" depart="15.00" departLane="+S_1" departPos="5.10" departSpeed="0.00" departDelay="14.00" arrival="132.00" arrivalLane="-W_1" arrivalPos="112.02" arrivalSpeed="12.94" duration="117.00" routeLength="499.34" waitingTime="53.00" waitingCount="4" stopTime="0.00" timeLoss="81.42" rerouteNo="1" devices="tripinfo_S-W-sedan.1 routing_S-W-sedan.1" vType="sedan" speedFactor="1.02" vaporized=""/>