<?xml version="1.0" encoding="UTF-8"?>

<!-- generated on 2023-04-18 12:18:54 by Eclipse SUMO GUI Version 1.15.0
<configuration xmlns:xsi="http://www.w3.org/2001/XMLSchema-instance" xsi:noNamespaceSchemaLocation="http://sumo.dlr.de/xsd/sumoConfiguration.xsd">

    <input>
        <net-file value="Z:\Users\708891\Desktop\APResearch\Simulations\divergingDiamond.net.xml"/>
        <route-files value="Z:\Users\708891\Desktop\APResearch\Simulations\unifiedDistribution.rou.xml"/>
    </input>

    <output>
        <tripinfo-output value="Z:\Users\708891\Desktop\APResearch\Simulations\output\divergingDiamond\divergingDiamondTripinfo1.xml"/>
        <collision-output value="Z:\Users\708891\Desktop\APResearch\Simulations\output\divergingDiamond\divergingDiamondCollision1.xml"/>
        <statistic-output value="Z:\Users\708891\Desktop\APResearch\Simulations\output\divergingDiamond\divergingDiamondNetworkStats1.xml"/>
    </output>

</configuration>
-->

<tripinfos xmlns:xsi="http://www.w3.org/2001/XMLSchema-instance" xsi:noNamespaceSchemaLocation="http://sumo.dlr.de/xsd/tripinfo_file.xsd">
    <tripinfo id="E-N-sedan.0" depart="0.00" departLane="+E_1" departPos="5.10" departSpeed="0.00" departDelay="0.00" arrival="31.00" arrivalLane="-N_1" arrivalPos="100.00" arrivalSpeed="14.02" duration="31.00" routeLength="366.95" waitingTime="0.00" waitingCount="0" stopTime="0.00" timeLoss="6.18" rerouteNo="1" devices="tripinfo_E-N-sedan.0 routing_E-N-sedan.0" vType="sedan" speedFactor="1.08" vaporized=""/>
    <tripinfo id="W-E-sedan.0" depart="3.00" departLane="+W_1" departPos="5.10" departSpeed="0.00" departDelay="3.00" arrival="34.00" arrivalLane="-E_2" arrivalPos="120.53" arrivalSpeed="14.47" duration="31.00" routeLength="394.90" waitingTime="0.00" waitingCount="0" stopTime="0.00" timeLoss="4.75" rerouteNo="1" devices="tripinfo_W-E-sedan.0 routing_W-E-sedan.0" vType="sedan" speedFactor="1.09" vaporized=""/>
    <tripinfo id="E-S-sedan.0" depart="3.00" departLane="+E_1" departPos="5.10" departSpeed="0.00" departDelay="3.00" arrival="37.00" arrivalLane="-S_2" arrivalPos="100.00" arrivalSpeed="13.94" duration="34.00" routeLength="406.40" waitingTime="0.00" waitingCount="0" stopTime="0.00" timeLoss="5.20" rerouteNo="1" devices="tripinfo_E-S-sedan.0 routing_E-S-sedan.0" vType="sedan" speedFactor="1.03" vaporized=""/>
    <tripinfo id="W-S-sedan.0" depart="6.00" departLane="+W_1" departPos="5.10" departSpeed="0.00" departDelay="6.00" arrival="39.00" arrivalLane="-S_1" arrivalPos="100.00" arrivalSpeed="13.95" duration="33.00" routeLength="366.95" waitingTime="0.00" waitingCount="0" stopTime="0.00" timeLoss="7.11" rerouteNo="1" devices="tripinfo_W-S-sedan.0 routing_W-S-sedan.0" vType="sedan" speedFactor="1.03" vaporized=""/>
    <tripinfo id="W-N-sedan.0" depart="0.00" departLane="+W_1" departPos="5.10" departSpeed="0.00" departDelay="0.00" arrival="41.00" arrivalLane="-N_2" arrivalPos="100.00" arrivalSpeed="11.19" duration="41.00" routeLength="406.40" waitingTime="0.00" waitingCount="0" stopTime="0.00" timeLoss="6.03" rerouteNo="1" devices="tripinfo_W-N-sedan.0 routing_W-N-sedan.0" vType="sedan" speedFactor="0.86" vaporized=""/>
    <tripinfo id="S-E-sedan.0" depart="3.00" departLane="+S_1" departPos="5.10" departSpeed="0.00" departDelay="3.00" arrival="43.00" arrivalLane="-E_1" arrivalPos="120.53" arrivalSpeed="5.51" duration="40.00" routeLength="366.95" waitingTime="10.00" waitingCount="1" stopTime="0.00" timeLoss="19.54" rerouteNo="1" devices="tripinfo_S-E-sedan.0 routing_S-E-sedan.0" vType="sedan" speedFactor="0.89" vaporized="teleport"/>
    <tripinfo id="E-N-sedan.1" depart="9.00" departLane="+E_1" departPos="5.10" departSpeed="0.00" departDelay="8.00" arrival="44.00" arrivalLane="-N_1" arrivalPos="100.00" arrivalSpeed="12.51" duration="35.00" routeLength="366.95" waitingTime="0.00" waitingCount="0" stopTime="0.00" timeLoss="5.77" rerouteNo="1" devices="tripinfo_E-N-sedan.1 routing_E-N-sedan.1" vType="sedan" speedFactor="0.93" vaporized=""/>
    <tripinfo id="E-W-sedan.0" depart="6.00" departLane="+E_1" departPos="5.10" departSpeed="0.00" departDelay="6.00" arrival="45.00" arrivalLane="-W_1" arrivalPos="120.53" arrivalSpeed="11.16" duration="39.00" routeLength="394.90" waitingTime="0.00" waitingCount="0" stopTime="0.00" timeLoss="4.45" rerouteNo="1" devices="tripinfo_E-W-sedan.0 routing_E-W-sedan.0" vType="sedan" speedFactor="0.83" vaporized=""/>
    <tripinfo id="N-E-sedan.1" depart="9.00" departLane="+N_1" departPos="5.10" departSpeed="0.00" departDelay="8.00" arrival="45.00" arrivalLane="-E_1" arrivalPos="120.53" arrivalSpeed="10.51" duration="36.00" routeLength="406.40" waitingTime="4.00" waitingCount="1" stopTime="0.00" timeLoss="16.13" rerouteNo="1" devices="tripinfo_N-E-sedan.1 routing_N-E-sedan.1" vType="sedan" speedFactor="1.05" vaporized="teleport"/>
    <tripinfo id="W-E-sedan.1" depart="12.00" departLane="+W_1" departPos="5.10" departSpeed="0.00" departDelay="11.00" arrival="46.00" arrivalLane="-E_2" arrivalPos="120.53" arrivalSpeed="12.74" duration="34.00" routeLength="394.90" waitingTime="0.00" waitingCount="0" stopTime="0.00" timeLoss="4.31" rerouteNo="1" devices="tripinfo_W-E-sedan.1 routing_W-E-sedan.1" vType="sedan" speedFactor="0.97" vaporized=""/>
    <tripinfo id="N-W-sedan.0" depart="6.00" departLane="+N_1" departPos="5.10" departSpeed="0.00" departDelay="6.00" arrival="50.00" arrivalLane="-W_1" arrivalPos="120.53" arrivalSpeed="13.83" duration="44.00" routeLength="366.95" waitingTime="8.00" waitingCount="1" stopTime="0.00" timeLoss="17.84" rerouteNo="1" devices="tripinfo_N-W-sedan.0 routing_N-W-sedan.0" vType="sedan" speedFactor="1.01" vaporized=""/>
    <tripinfo id="E-W-sedan.1" depart="15.00" departLane="+E_1" departPos="5.10" departSpeed="0.00" departDelay="14.00" arrival="50.00" arrivalLane="-W_2" arrivalPos="120.53" arrivalSpeed="12.71" duration="35.00" routeLength="394.90" waitingTime="0.00" waitingCount="0" stopTime="0.00" timeLoss="4.47" rerouteNo="1" devices="tripinfo_E-W-sedan.1 routing_E-W-sedan.1" vType="sedan" speedFactor="0.94" vaporized=""/>
    <tripinfo id="S-W-sedan.1" depart="15.00" departLane="+S_1" departPos="5.10" departSpeed="0.00" departDelay="14.00" arrival="49.00" arrivalLane="-W_1" arrivalPos="120.53" arrivalSpeed="1.76" duration="34.00" routeLength="406.40" waitingTime="2.00" waitingCount="2" stopTime="0.00" timeLoss="13.67" rerouteNo="1" devices="tripinfo_S-W-sedan.1 routing_S-W-sedan.1" vType="sedan" speedFactor="1.02" vaporized="teleport"/>
    <tripinfo id="W-S-sedan.1" depart="15.00" departLane="+W_1" departPos="5.10" departSpeed="0.00" departDelay="14.00" arrival="50.00" arrivalLane="-S_1" arrivalPos="100.00" arrivalSpeed="11.83" duration="35.00" routeLength="366.95" waitingTime="0.00" waitingCount="0" stopTime="0.00" timeLoss="4.45" rerouteNo="1" devices="tripinfo_W-S-sedan.1 routing_W-S-sedan.1" vType="sedan" speedFactor="0.89" vaporized=""/>
    <tripinfo id="E-N-sedan.2" depart="18.00" departLane="+E_1" departPos="5.10" departSpeed="0.00" departDelay="16.00" arrival="51.00" arrivalLane="-N_1" arrivalPos="100.00" arrivalSpeed="12.86" duration="33.00" routeLength="366.95" waitingTime="0.00" waitingCount="0" stopTime="0.00" timeLoss="4.36" rerouteNo="1" devices="tripinfo_E-N-sedan.2 routing_E-N-sedan.2" vType="sedan" speedFactor="0.95" vaporized=""/>
    <tripinfo id="N-E-sedan.0" depart="0.00" departLane="+N_1" departPos="5.10" departSpeed="0.00" departDelay="0.00" arrival="52.00" arrivalLane="-E_1" arrivalPos="120.53" arrivalSpeed="13.98" duration="52.00" routeLength="406.40" waitingTime="11.00" waitingCount="1" stopTime="0.00" timeLoss="23.90" rerouteNo="1" devices="tripinfo_N-E-sedan.0 routing_N-E-sedan.0" vType="sedan" speedFactor="1.06" vaporized=""/>
    <tripinfo id="S-W-sedan.0" depart="6.00" departLane="+S_1" departPos="5.10" departSpeed="0.00" departDelay="6.00" arrival="53.00" arrivalLane="-W_1" arrivalPos="120.53" arrivalSpeed="12.19" duration="47.00" routeLength="406.40" waitingTime="5.00" waitingCount="1" stopTime="0.00" timeLoss="15.24" rerouteNo="1" devices="tripinfo_S-W-sedan.0 routing_S-W-sedan.0" vType="sedan" speedFactor="0.94" vaporized=""/>
    <tripinfo id="S-E-sedan.1" depart="12.00" departLane="+S_1" departPos="5.10" departSpeed="0.00" departDelay="11.00" arrival="54.00" arrivalLane="-E_1" arrivalPos="120.53" arrivalSpeed="15.94" duration="42.00" routeLength="366.95" waitingTime="4.00" waitingCount="1" stopTime="0.00" timeLoss="18.60" rerouteNo="1" devices="tripinfo_S-E-sedan.1 routing_S-E-sedan.1" vType="sedan" speedFactor="1.16" vaporized=""/>
    <tripinfo id="W-S-sedan.2" depart="24.00" departLane="+W_1" departPos="5.10" departSpeed="0.00" departDelay="22.00" arrival="54.00" arrivalLane="-S_1" arrivalPos="100.00" arrivalSpeed="13.78" duration="30.00" routeLength="366.95" waitingTime="0.00" waitingCount="0" stopTime="0.00" timeLoss="4.07" rerouteNo="1" devices="tripinfo_W-S-sedan.2 routing_W-S-sedan.2" vType="sedan" speedFactor="1.02" vaporized=""/>
    <tripinfo id="N-E-sedan.3" depart="27.00" departLane="+N_1" departPos="5.10" departSpeed="0.00" departDelay="24.00" arrival="53.00" arrivalLane="-E_1" arrivalPos="120.53" arrivalSpeed="10.05" duration="26.00" routeLength="406.40" waitingTime="0.00" waitingCount="0" stopTime="0.00" timeLoss="4.49" rerouteNo="1" devices="tripinfo_N-E-sedan.3 routing_N-E-sedan.3" vType="sedan" speedFactor="0.97" vaporized="teleport"/>
    <tripinfo id="W-E-sedan.2" depart="21.00" departLane="+W_1" departPos="5.10" departSpeed="0.00" departDelay="19.00" arrival="55.00" arrivalLane="-E_2" arrivalPos="120.53" arrivalSpeed="12.80" duration="34.00" routeLength="394.90" waitingTime="0.00" waitingCount="0" stopTime="0.00" timeLoss="4.75" rerouteNo="1" devices="tripinfo_W-E-sedan.2 routing_W-E-sedan.2" vType="sedan" speedFactor="0.99" vaporized=""/>
    <tripinfo id="S-E-sedan.2" depart="21.00" departLane="+S_1" departPos="5.10" departSpeed="0.00" departDelay="19.00" arrival="56.00" arrivalLane="-E_1" arrivalPos="120.53" arrivalSpeed="14.98" duration="35.00" routeLength="366.95" waitingTime="0.00" waitingCount="0" stopTime="0.00" timeLoss="11.19" rerouteNo="1" devices="tripinfo_S-E-sedan.2 routing_S-E-sedan.2" vType="sedan" speedFactor="1.15" vaporized=""/>
    <tripinfo id="N-W-sedan.1" depart="15.00" departLane="+N_1" departPos="5.10" departSpeed="0.00" departDelay="14.00" arrival="57.00" arrivalLane="-W_1" arrivalPos="120.53" arrivalSpeed="12.91" duration="42.00" routeLength="366.95" waitingTime="1.00" waitingCount="1" stopTime="0.00" timeLoss="14.64" rerouteNo="1" devices="tripinfo_N-W-sedan.1 routing_N-W-sedan.1" vType="sedan" speedFactor="0.99" vaporized=""/>
    <tripinfo id="N-W-sedan.2" depart="24.00" departLane="+N_1" departPos="5.10" departSpeed="0.00" departDelay="22.00" arrival="59.00" arrivalLane="-W_1" arrivalPos="120.53" arrivalSpeed="12.32" duration="35.00" routeLength="366.95" waitingTime="0.00" waitingCount="0" stopTime="0.00" timeLoss="5.83" rerouteNo="1" devices="tripinfo_N-W-sedan.2 routing_N-W-sedan.2" vType="sedan" speedFactor="0.92" vaporized=""/>
    <tripinfo id="E-W-sedan.2" depart="24.00" departLane="+E_1" departPos="5.10" departSpeed="0.00" departDelay="22.00" arrival="59.00" arrivalLane="-W_2" arrivalPos="120.53" arrivalSpeed="12.74" duration="35.00" routeLength="394.90" waitingTime="0.00" waitingCount="0" stopTime="0.00" timeLoss="4.02" rerouteNo="1" devices="tripinfo_E-W-sedan.2 routing_E-W-sedan.2" vType="sedan" speedFactor="0.93" vaporized=""/>
    <tripinfo id="N-E-sedan.2" depart="18.00" departLane="+N_1" departPos="5.10" departSpeed="0.00" departDelay="16.00" arrival="61.00" arrivalLane="-E_1" arrivalPos="120.53" arrivalSpeed="10.84" duration="43.00" routeLength="406.40" waitingTime="0.00" waitingCount="0" stopTime="0.00" timeLoss="7.29" rerouteNo="1" devices="tripinfo_N-E-sedan.2 routing_N-E-sedan.2" vType="sedan" speedFactor="0.83" vaporized=""/>
    <tripinfo id="S-W-sedan.2" depart="24.00" departLane="+S_1" departPos="5.10" departSpeed="0.00" departDelay="22.00" arrival="61.00" arrivalLane="-W_1" arrivalPos="120.53" arrivalSpeed="12.97" duration="37.00" routeLength="406.40" waitingTime="0.00" waitingCount="0" stopTime="0.00" timeLoss="7.22" rerouteNo="1" devices="tripinfo_S-W-sedan.2 routing_S-W-sedan.2" vType="sedan" speedFactor="1.01" vaporized=""/>
    <tripinfo id="E-N-sedan.3" depart="27.00" departLane="+E_1" departPos="5.10" departSpeed="0.00" departDelay="24.00" arrival="61.00" arrivalLane="-N_1" arrivalPos="100.00" arrivalSpeed="11.94" duration="34.00" routeLength="366.95" waitingTime="0.00" waitingCount="0" stopTime="0.00" timeLoss="4.51" rerouteNo="1" devices="tripinfo_E-N-sedan.3 routing_E-N-sedan.3" vType="sedan" speedFactor="0.90" vaporized=""/>
    <tripinfo id="S-E-sedan.3" depart="30.00" departLane="+S_1" departPos="5.10" departSpeed="0.00" departDelay="27.00" arrival="63.00" arrivalLane="-E_1" arrivalPos="120.53" arrivalSpeed="13.29" duration="33.00" routeLength="366.95" waitingTime="0.00" waitingCount="0" stopTime="0.00" timeLoss="6.94" rerouteNo="1" devices="tripinfo_S-E-sedan.3 routing_S-E-sedan.3" vType="sedan" speedFactor="1.04" vaporized=""/>
    <tripinfo id="W-E-sedan.3" depart="30.00" departLane="+W_1" departPos="5.10" departSpeed="0.00" departDelay="27.00" arrival="63.00" arrivalLane="-E_2" arrivalPos="120.53" arrivalSpeed="13.09" duration="33.00" routeLength="394.90" waitingTime="0.00" waitingCount="0" stopTime="0.00" timeLoss="4.43" rerouteNo="1" devices="tripinfo_W-E-sedan.3 routing_W-E-sedan.3" vType="sedan" speedFactor="1.00" vaporized=""/>
    <tripinfo id="E-N-sedan.4" depart="36.00" departLane="+E_1" departPos="5.10" departSpeed="0.00" departDelay="32.00" arrival="63.00" arrivalLane="-N_1" arrivalPos="100.00" arrivalSpeed="15.24" duration="27.00" routeLength="366.95" waitingTime="0.00" waitingCount="0" stopTime="0.00" timeLoss="4.29" rerouteNo="1" devices="tripinfo_E-N-sedan.4 routing_E-N-sedan.4" vType="sedan" speedFactor="1.17" vaporized=""/>
    <tripinfo id="N-W-sedan.3" depart="33.00" departLane="+N_1" departPos="5.10" departSpeed="0.00" departDelay="30.00" arrival="64.00" arrivalLane="-W_1" arrivalPos="120.53" arrivalSpeed="14.75" duration="31.00" routeLength="366.95" waitingTime="0.00" waitingCount="0" stopTime="0.00" timeLoss="6.50" rerouteNo="1" devices="tripinfo_N-W-sedan.3 routing_N-W-sedan.3" vType="sedan" speedFactor="1.10" vaporized=""/>
    <tripinfo id="N-E-sedan.4" depart="36.00" departLane="+N_1" departPos="5.10" departSpeed="0.00" departDelay="32.00" arrival="63.00" arrivalLane="-E_1" arrivalPos="120.53" arrivalSpeed="11.94" duration="27.00" routeLength="406.40" waitingTime="0.00" waitingCount="0" stopTime="0.00" timeLoss="3.31" rerouteNo="1" devices="tripinfo_N-E-sedan.4 routing_N-E-sedan.4" vType="sedan" speedFactor="0.88" vaporized="teleport"/>
    <tripinfo id="E-W-sedan.3" depart="33.00" departLane="+E_1" departPos="5.10" departSpeed="0.00" departDelay="30.00" arrival="67.00" arrivalLane="-W_2" arrivalPos="120.53" arrivalSpeed="12.03" duration="34.00" routeLength="394.90" waitingTime="0.00" waitingCount="0" stopTime="0.00" timeLoss="4.15" rerouteNo="1" devices="tripinfo_E-W-sedan.3 routing_E-W-sedan.3" vType="sedan" speedFactor="0.96" vaporized=""/>
    <tripinfo id="W-S-sedan.3" depart="33.00" departLane="+W_1" departPos="5.10" departSpeed="0.00" departDelay="30.00" arrival="67.00" arrivalLane="-S_1" arrivalPos="100.00" arrivalSpeed="12.21" duration="34.00" routeLength="366.95" waitingTime="0.00" waitingCount="0" stopTime="0.00" timeLoss="4.42" rerouteNo="1" devices="tripinfo_W-S-sedan.3 routing_W-S-sedan.3" vType="sedan" speedFactor="0.90" vaporized=""/>
    <tripinfo id="S-W-sedan.3" depart="33.00" departLane="+S_1" departPos="5.10" departSpeed="0.00" departDelay="30.00" arrival="68.00" arrivalLane="-W_1" arrivalPos="120.53" arrivalSpeed="13.75" duration="35.00" routeLength="406.40" waitingTime="0.00" waitingCount="0" stopTime="0.00" timeLoss="6.72" rerouteNo="1" devices="tripinfo_S-W-sedan.3 routing_S-W-sedan.3" vType="sedan" speedFactor="1.04" vaporized=""/>
    <tripinfo id="W-E-sedan.4" depart="39.00" departLane="+W_1" departPos="5.10" departSpeed="0.00" departDelay="35.00" arrival="71.00" arrivalLane="-E_2" arrivalPos="120.53" arrivalSpeed="13.26" duration="32.00" routeLength="394.90" waitingTime="0.00" waitingCount="0" stopTime="0.00" timeLoss="4.01" rerouteNo="1" devices="tripinfo_W-E-sedan.4 routing_W-E-sedan.4" vType="sedan" speedFactor="1.02" vaporized=""/>
    <tripinfo id="S-E-sedan.4" depart="39.00" departLane="+S_1" departPos="5.10" departSpeed="0.00" departDelay="35.00" arrival="73.00" arrivalLane="-E_1" arrivalPos="120.53" arrivalSpeed="13.29" duration="34.00" routeLength="366.95" waitingTime="0.00" waitingCount="0" stopTime="0.00" timeLoss="6.92" rerouteNo="1" devices="tripinfo_S-E-sedan.4 routing_S-E-sedan.4" vType="sedan" speedFactor="1.00" vaporized=""/>
    <tripinfo id="W-S-sedan.4" depart="42.00" departLane="+W_1" departPos="5.10" departSpeed="0.00" departDelay="38.00" arrival="74.00" arrivalLane="-S_1" arrivalPos="100.00" arrivalSpeed="13.29" duration="32.00" routeLength="366.95" waitingTime="0.00" waitingCount="0" stopTime="0.00" timeLoss="3.89" rerouteNo="1" devices="tripinfo_W-S-sedan.4 routing_W-S-sedan.4" vType="sedan" speedFactor="0.97" vaporized=""/>
    <tripinfo id="E-W-sedan.4" depart="42.00" departLane="+E_1" departPos="5.10" departSpeed="0.00" departDelay="38.00" arrival="75.00" arrivalLane="-W_1" arrivalPos="120.53" arrivalSpeed="14.10" duration="33.00" routeLength="394.90" waitingTime="0.00" waitingCount="0" stopTime="0.00" timeLoss="6.55" rerouteNo="1" devices="tripinfo_E-W-sedan.4 routing_E-W-sedan.4" vType="sedan" speedFactor="1.10" vaporized=""/>
    <tripinfo id="E-N-sedan.5" depart="45.00" departLane="+E_1" departPos="5.10" departSpeed="0.00" departDelay="40.00" arrival="77.00" arrivalLane="-N_1" arrivalPos="100.00" arrivalSpeed="13.22" duration="32.00" routeLength="366.95" waitingTime="0.00" waitingCount="0" stopTime="0.00" timeLoss="4.42" rerouteNo="1" devices="tripinfo_E-N-sedan.5 routing_E-N-sedan.5" vType="sedan" speedFactor="0.99" vaporized=""/>
    <tripinfo id="N-W-sedan.4" depart="42.00" departLane="+N_1" departPos="5.10" departSpeed="0.00" departDelay="38.00" arrival="80.00" arrivalLane="-W_1" arrivalPos="120.53" arrivalSpeed="11.72" duration="38.00" routeLength="366.95" waitingTime="0.00" waitingCount="0" stopTime="0.00" timeLoss="6.51" rerouteNo="1" devices="tripinfo_N-W-sedan.4 routing_N-W-sedan.4" vType="sedan" speedFactor="0.85" vaporized=""/>
    <tripinfo id="W-E-sedan.5" depart="48.00" departLane="+W_1" departPos="5.10" departSpeed="0.00" departDelay="43.00" arrival="81.00" arrivalLane="-E_2" arrivalPos="120.53" arrivalSpeed="14.14" duration="33.00" routeLength="394.90" waitingTime="0.00" waitingCount="0" stopTime="0.00" timeLoss="4.32" rerouteNo="1" devices="tripinfo_W-E-sedan.5 routing_W-E-sedan.5" vType="sedan" speedFactor="1.02" vaporized=""/>
    <tripinfo id="W-S-sedan.5" depart="51.00" departLane="+W_1" departPos="5.10" departSpeed="0.00" departDelay="46.00" arrival="83.00" arrivalLane="-S_1" arrivalPos="100.00" arrivalSpeed="12.69" duration="32.00" routeLength="366.95" waitingTime="0.00" waitingCount="0" stopTime="0.00" timeLoss="4.48" rerouteNo="1" devices="tripinfo_W-S-sedan.5 routing_W-S-sedan.5" vType="sedan" speedFactor="0.97" vaporized=""/>
    <tripinfo id="E-N-sedan.6" depart="54.00" departLane="+E_1" departPos="5.10" departSpeed="0.00" departDelay="48.00" arrival="85.00" arrivalLane="-N_1" arrivalPos="100.00" arrivalSpeed="13.35" duration="31.00" routeLength="366.95" waitingTime="0.00" waitingCount="0" stopTime="0.00" timeLoss="4.16" rerouteNo="1" devices="tripinfo_E-N-sedan.6 routing_E-N-sedan.6" vType="sedan" speedFactor="0.98" vaporized=""/>
    <tripinfo id="E-W-sedan.5" depart="51.00" departLane="+E_1" departPos="5.10" departSpeed="0.00" departDelay="46.00" arrival="88.00" arrivalLane="-W_2" arrivalPos="120.53" arrivalSpeed="11.36" duration="37.00" routeLength="394.90" waitingTime="0.00" waitingCount="0" stopTime="0.00" timeLoss="3.95" rerouteNo="1" devices="tripinfo_E-W-sedan.5 routing_E-W-sedan.5" vType="sedan" speedFactor="0.88" vaporized=""/>
    <tripinfo id="W-E-sedan.6" depart="57.00" departLane="+W_1" departPos="5.10" departSpeed="0.00" departDelay="51.00" arrival="90.00" arrivalLane="-E_2" arrivalPos="120.53" arrivalSpeed="13.21" duration="33.00" routeLength="394.90" waitingTime="0.00" waitingCount="0" stopTime="0.00" timeLoss="4.31" rerouteNo="1" devices="tripinfo_W-E-sedan.6 routing_W-E-sedan.6" vType="sedan" speedFactor="1.02" vaporized=""/>
    <tripinfo id="W-S-sedan.6" depart="60.00" departLane="+W_1" departPos="5.10" departSpeed="0.00" departDelay="54.00" arrival="92.00" arrivalLane="-S_1" arrivalPos="100.00" arrivalSpeed="13.13" duration="32.00" routeLength="366.95" waitingTime="0.00" waitingCount="0" stopTime="0.00" timeLoss="3.94" rerouteNo="1" devices="tripinfo_W-S-sedan.6 routing_W-S-sedan.6" vType="sedan" speedFactor="0.97" vaporized=""/>
    <tripinfo id="E-N-sedan.7" depart="63.00" departLane="+E_1" departPos="5.10" departSpeed="0.00" departDelay="56.00" arrival="93.00" arrivalLane="-N_1" arrivalPos="100.00" arrivalSpeed="14.03" duration="30.00" routeLength="366.95" waitingTime="0.00" waitingCount="0" stopTime="0.00" timeLoss="4.26" rerouteNo="1" devices="tripinfo_E-N-sedan.7 routing_E-N-sedan.7" vType="sedan" speedFactor="1.04" vaporized=""/>
    <tripinfo id="E-W-sedan.6" depart="60.00" departLane="+E_1" departPos="5.10" departSpeed="0.00" departDelay="54.00" arrival="94.00" arrivalLane="-W_1" arrivalPos="120.53" arrivalSpeed="12.66" duration="34.00" routeLength="394.90" waitingTime="0.00" waitingCount="0" stopTime="0.00" timeLoss="4.35" rerouteNo="1" devices="tripinfo_E-W-sedan.6 routing_E-W-sedan.6" vType="sedan" speedFactor="0.98" vaporized=""/>
    <tripinfo id="W-E-sedan.7" depart="66.00" departLane="+W_1" departPos="5.10" departSpeed="0.00" departDelay="59.00" arrival="97.00" arrivalLane="-E_2" arrivalPos="120.53" arrivalSpeed="14.16" duration="31.00" routeLength="394.90" waitingTime="0.00" waitingCount="0" stopTime="0.00" timeLoss="4.53" rerouteNo="1" devices="tripinfo_W-E-sedan.7 routing_W-E-sedan.7" vType="sedan" speedFactor="1.09" vaporized=""/>
    <tripinfo id="W-S-sedan.7" depart="69.00" departLane="+W_1" departPos="5.10" departSpeed="0.00" departDelay="62.00" arrival="100.00" arrivalLane="-S_1" arrivalPos="100.00" arrivalSpeed="13.43" duration="31.00" routeLength="366.95" waitingTime="0.00" waitingCount="0" stopTime="0.00" timeLoss="5.59" rerouteNo="1" devices="tripinfo_W-S-sedan.7 routing_W-S-sedan.7" vType="sedan" speedFactor="1.06" vaporized=""/>
    <tripinfo id="E-W-sedan.7" depart="69.00" departLane="+E_1" departPos="5.10" departSpeed="0.00" departDelay="62.00" arrival="101.00" arrivalLane="-W_2" arrivalPos="120.53" arrivalSpeed="13.24" duration="32.00" routeLength="394.90" waitingTime="0.00" waitingCount="0" stopTime="0.00" timeLoss="3.88" rerouteNo="1" devices="tripinfo_E-W-sedan.7 routing_E-W-sedan.7" vType="sedan" speedFactor="1.02" vaporized=""/>
    <tripinfo id="W-N-sedan.1" depart="9.00" departLane="+W_1" departPos="5.10" departSpeed="0.00" departDelay="8.00" arrival="104.00" arrivalLane="-N_2" arrivalPos="100.00" arrivalSpeed="13.89" duration="95.00" routeLength="406.40" waitingTime="56.00" waitingCount="1" stopTime="0.00" timeLoss="65.74" rerouteNo="1" devices="tripinfo_W-N-sedan.1 routing_W-N-sedan.1" vType="sedan" speedFactor="1.01" vaporized=""/>
    <tripinfo id="N-S-sedan.0" depart="3.00" departLane="+N_1" departPos="5.10" departSpeed="0.00" departDelay="3.00" arrival="105.00" arrivalLane="-S_1" arrivalPos="100.00" arrivalSpeed="12.45" duration="102.00" routeLength="405.26" waitingTime="55.00" waitingCount="2" stopTime="0.00" timeLoss="70.85" rerouteNo="1" devices="tripinfo_N-S-sedan.0 routing_N-S-sedan.0" vType="sedan" speedFactor="0.94" vaporized=""/>
    <tripinfo id="S-N-sedan.0" depart="0.00" departLane="+S_1" departPos="5.10" departSpeed="0.00" departDelay="0.00" arrival="105.00" arrivalLane="-N_1" arrivalPos="100.00" arrivalSpeed="14.31" duration="105.00" routeLength="405.26" waitingTime="62.00" waitingCount="2" stopTime="0.00" timeLoss="76.27" rerouteNo="1" devices="tripinfo_S-N-sedan.0 routing_S-N-sedan.0" vType="sedan" speedFactor="1.05" vaporized=""/>
    <tripinfo id="N-S-sedan.2" depart="21.00" departLane="+N_1" departPos="5.10" departSpeed="0.00" departDelay="19.00" arrival="106.00" arrivalLane="-S_2" arrivalPos="100.00" arrivalSpeed="11.45" duration="85.00" routeLength="405.26" waitingTime="41.00" waitingCount="1" stopTime="0.00" timeLoss="50.93" rerouteNo="1" devices="tripinfo_N-S-sedan.2 routing_N-S-sedan.2" vType="sedan" speedFactor="0.87" vaporized=""/>
    <tripinfo id="S-N-sedan.2" depart="18.00" departLane="+S_1" departPos="5.10" departSpeed="0.00" departDelay="16.00" arrival="106.00" arrivalLane="-N_1" arrivalPos="100.00" arrivalSpeed="15.54" duration="88.00" routeLength="405.26" waitingTime="44.00" waitingCount="1" stopTime="0.00" timeLoss="63.06" rerouteNo="1" devices="tripinfo_S-N-sedan.2 routing_S-N-sedan.2" vType="sedan" speedFactor="1.18" vaporized=""/>
    <tripinfo id="N-S-sedan.1" depart="12.00" departLane="+N_1" departPos="5.10" departSpeed="0.00" departDelay="11.00" arrival="107.00" arrivalLane="-S_1" arrivalPos="100.00" arrivalSpeed="14.98" duration="95.00" routeLength="405.26" waitingTime="49.00" waitingCount="2" stopTime="0.00" timeLoss="68.57" rerouteNo="1" devices="tripinfo_N-S-sedan.1 routing_N-S-sedan.1" vType="sedan" speedFactor="1.12" vaporized=""/>
    <tripinfo id="S-N-sedan.1" depart="9.00" departLane="+S_1" departPos="5.10" departSpeed="0.00" departDelay="8.00" arrival="107.00" arrivalLane="-N_2" arrivalPos="100.00" arrivalSpeed="11.88" duration="98.00" routeLength="405.26" waitingTime="51.00" waitingCount="2" stopTime="0.00" timeLoss="66.57" rerouteNo="1" devices="tripinfo_S-N-sedan.1 routing_S-N-sedan.1" vType="sedan" speedFactor="0.94" vaporized=""/>
    <tripinfo id="N-S-sedan.3" depart="30.00" departLane="+N_1" departPos="5.10" departSpeed="0.00" departDelay="27.00" arrival="107.00" arrivalLane="-S_2" arrivalPos="100.00" arrivalSpeed="13.53" duration="77.00" routeLength="405.26" waitingTime="37.00" waitingCount="1" stopTime="0.00" timeLoss="52.26" rerouteNo="1" devices="tripinfo_N-S-sedan.3 routing_N-S-sedan.3" vType="sedan" speedFactor="1.18" vaporized=""/>
    <tripinfo id="S-N-sedan.3" depart="27.00" departLane="+S_1" departPos="5.10" departSpeed="0.00" departDelay="24.00" arrival="108.00" arrivalLane="-N_1" arrivalPos="100.00" arrivalSpeed="14.85" duration="81.00" routeLength="405.26" waitingTime="43.00" waitingCount="1" stopTime="0.00" timeLoss="53.84" rerouteNo="1" devices="tripinfo_S-N-sedan.3 routing_S-N-sedan.3" vType="sedan" speedFactor="1.09" vaporized=""/>
    <tripinfo id="W-E-sedan.8" depart="75.00" departLane="+W_1" departPos="5.10" departSpeed="0.00" departDelay="67.00" arrival="108.00" arrivalLane="-E_2" arrivalPos="120.53" arrivalSpeed="12.80" duration="33.00" routeLength="394.90" waitingTime="0.00" waitingCount="0" stopTime="0.00" timeLoss="4.53" rerouteNo="1" devices="tripinfo_W-E-sedan.8 routing_W-E-sedan.8" vType="sedan" speedFactor="1.01" vaporized=""/>
    <tripinfo id="E-S-sedan.2" depart="21.00" departLane="+E_1" departPos="5.10" departSpeed="0.00" departDelay="19.00" arrival="109.00" arrivalLane="-S_2" arrivalPos="100.00" arrivalSpeed="15.19" duration="88.00" routeLength="406.40" waitingTime="39.00" waitingCount="2" stopTime="0.00" timeLoss="61.70" rerouteNo="1" devices="tripinfo_E-S-sedan.2 routing_E-S-sedan.2" vType="sedan" speedFactor="1.13" vaporized=""/>
    <tripinfo id="W-N-sedan.3" depart="27.00" departLane="+W_1" departPos="5.10" departSpeed="0.00" departDelay="24.00" arrival="109.00" arrivalLane="-N_2" arrivalPos="100.00" arrivalSpeed="14.00" duration="82.00" routeLength="406.40" waitingTime="39.00" waitingCount="1" stopTime="0.00" timeLoss="54.38" rerouteNo="1" devices="tripinfo_W-N-sedan.3 routing_W-N-sedan.3" vType="sedan" speedFactor="1.09" vaporized=""/>
    <tripinfo id="S-N-sedan.4" depart="36.00" departLane="+S_1" departPos="5.10" departSpeed="0.00" departDelay="32.00" arrival="110.00" arrivalLane="-N_1" arrivalPos="100.00" arrivalSpeed="13.13" duration="74.00" routeLength="405.26" waitingTime="35.00" waitingCount="1" stopTime="0.00" timeLoss="44.74" rerouteNo="1" devices="tripinfo_S-N-sedan.4 routing_S-N-sedan.4" vType="sedan" speedFactor="1.00" vaporized=""/>
    <tripinfo id="W-N-sedan.4" depart="36.00" departLane="+W_1" departPos="5.10" departSpeed="0.00" departDelay="32.00" arrival="110.00" arrivalLane="-N_2" arrivalPos="100.00" arrivalSpeed="15.20" duration="74.00" routeLength="406.40" waitingTime="31.00" waitingCount="1" stopTime="0.00" timeLoss="48.27" rerouteNo="1" devices="tripinfo_W-N-sedan.4 routing_W-N-sedan.4" vType="sedan" speedFactor="1.14" vaporized=""/>
    <tripinfo id="N-S-sedan.4" depart="39.00" departLane="+N_1" departPos="5.10" departSpeed="0.00" departDelay="35.00" arrival="111.00" arrivalLane="-S_1" arrivalPos="100.00" arrivalSpeed="11.70" duration="72.00" routeLength="405.26" waitingTime="28.00" waitingCount="1" stopTime="0.00" timeLoss="37.12" rerouteNo="1" devices="tripinfo_N-S-sedan.4 routing_N-S-sedan.4" vType="sedan" speedFactor="0.85" vaporized=""/>
    <tripinfo id="E-S-sedan.4" depart="39.00" departLane="+E_1" departPos="5.10" departSpeed="0.00" departDelay="35.00" arrival="111.00" arrivalLane="-S_2" arrivalPos="100.00" arrivalSpeed="13.21" duration="72.00" routeLength="406.40" waitingTime="22.00" waitingCount="2" stopTime="0.00" timeLoss="42.55" rerouteNo="1" devices="tripinfo_E-S-sedan.4 routing_E-S-sedan.4" vType="sedan" speedFactor="1.02" vaporized=""/>