<?xml version="1.0" encoding="UTF-8"?>

<!-- generated on 2023-04-09 17:01:54 by Eclipse SUMO GUI Version 1.15.0
<configuration xmlns:xsi="http://www.w3.org/2001/XMLSchema-instance" xsi:noNamespaceSchemaLocation="http://sumo.dlr.de/xsd/sumoConfiguration.xsd">

    <input>
        <net-file value="Z:\Users\708891\Desktop\AP research\Simulations\divergingDiamond.net.xml"/>
        <route-files value="Z:\Users\708891\Desktop\AP research\Simulations\unifiedDistribution.rou.xml"/>
    </input>

    <output>
        <tripinfo-output value="Z:\Users\708891\Desktop\AP research\Simulations\output\divergingDiamond\divergingDiamondTripinfo4.xml"/>
        <collision-output value="Z:\Users\708891\Desktop\AP research\Simulations\output\divergingDiamond\divergingDiamondCollision4.xml"/>
        <statistic-output value="Z:\Users\708891\Desktop\AP research\Simulations\output\divergingDiamond\divergingDiamondNetworkStats4.xml"/>
    </output>

</configuration>
-->

<tripinfos xmlns:xsi="http://www.w3.org/2001/XMLSchema-instance" xsi:noNamespaceSchemaLocation="http://sumo.dlr.de/xsd/tripinfo_file.xsd">
    <tripinfo id="E-N-sedan.0" depart="0.00" departLane="+E_1" departPos="5.10" departSpeed="0.00" departDelay="0.00" arrival="31.00" arrivalLane="-N_1" arrivalPos="100.00" arrivalSpeed="14.02" duration="31.00" routeLength="366.95" waitingTime="0.00" waitingCount="0" stopTime="0.00" timeLoss="6.18" rerouteNo="1" devices="tripinfo_E-N-sedan.0 routing_E-N-sedan.0" vType="sedan" speedFactor="1.08" vaporized=""/>
    <tripinfo id="W-E-sedan.0" depart="3.00" departLane="+W_1" departPos="5.10" departSpeed="0.00" departDelay="3.00" arrival="34.00" arrivalLane="-E_2" arrivalPos="120.53" arrivalSpeed="14.47" duration="31.00" routeLength="394.90" waitingTime="0.00" waitingCount="0" stopTime="0.00" timeLoss="4.77" rerouteNo="1" devices="tripinfo_W-E-sedan.0 routing_W-E-sedan.0" vType="sedan" speedFactor="1.09" vaporized=""/>
    <tripinfo id="E-S-sedan.0" depart="3.00" departLane="+E_1" departPos="5.10" departSpeed="0.00" departDelay="3.00" arrival="37.00" arrivalLane="-S_2" arrivalPos="100.00" arrivalSpeed="13.94" duration="34.00" routeLength="406.40" waitingTime="0.00" waitingCount="0" stopTime="0.00" timeLoss="5.28" rerouteNo="1" devices="tripinfo_E-S-sedan.0 routing_E-S-sedan.0" vType="sedan" speedFactor="1.03" vaporized=""/>
    <tripinfo id="W-S-sedan.0" depart="6.00" departLane="+W_1" departPos="5.10" departSpeed="0.00" departDelay="6.00" arrival="39.00" arrivalLane="-S_1" arrivalPos="100.00" arrivalSpeed="13.95" duration="33.00" routeLength="366.95" waitingTime="0.00" waitingCount="0" stopTime="0.00" timeLoss="7.11" rerouteNo="1" devices="tripinfo_W-S-sedan.0 routing_W-S-sedan.0" vType="sedan" speedFactor="1.03" vaporized=""/>
    <tripinfo id="W-N-sedan.0" depart="0.00" departLane="+W_1" departPos="5.10" departSpeed="0.00" departDelay="0.00" arrival="41.00" arrivalLane="-N_2" arrivalPos="100.00" arrivalSpeed="11.19" duration="41.00" routeLength="406.40" waitingTime="0.00" waitingCount="0" stopTime="0.00" timeLoss="6.03" rerouteNo="1" devices="tripinfo_W-N-sedan.0 routing_W-N-sedan.0" vType="sedan" speedFactor="0.86" vaporized=""/>
    <tripinfo id="E-N-sedan.1" depart="9.00" departLane="+E_1" departPos="5.10" departSpeed="0.00" departDelay="8.00" arrival="44.00" arrivalLane="-N_1" arrivalPos="100.00" arrivalSpeed="12.51" duration="35.00" routeLength="366.95" waitingTime="0.00" waitingCount="0" stopTime="0.00" timeLoss="5.81" rerouteNo="1" devices="tripinfo_E-N-sedan.1 routing_E-N-sedan.1" vType="sedan" speedFactor="0.93" vaporized=""/>
    <tripinfo id="E-W-sedan.0" depart="6.00" departLane="+E_1" departPos="5.10" departSpeed="0.00" departDelay="6.00" arrival="45.00" arrivalLane="-W_1" arrivalPos="120.53" arrivalSpeed="10.73" duration="39.00" routeLength="394.90" waitingTime="0.00" waitingCount="0" stopTime="0.00" timeLoss="4.31" rerouteNo="1" devices="tripinfo_E-W-sedan.0 routing_E-W-sedan.0" vType="sedan" speedFactor="0.83" vaporized=""/>
    <tripinfo id="W-E-sedan.1" depart="12.00" departLane="+W_1" departPos="5.10" departSpeed="0.00" departDelay="11.00" arrival="46.00" arrivalLane="-E_1" arrivalPos="120.53" arrivalSpeed="12.76" duration="34.00" routeLength="394.90" waitingTime="0.00" waitingCount="0" stopTime="0.00" timeLoss="4.12" rerouteNo="1" devices="tripinfo_W-E-sedan.1 routing_W-E-sedan.1" vType="sedan" speedFactor="0.97" vaporized=""/>
    <tripinfo id="W-S-sedan.1" depart="15.00" departLane="+W_1" departPos="5.10" departSpeed="0.00" departDelay="14.00" arrival="49.00" arrivalLane="-S_1" arrivalPos="100.00" arrivalSpeed="11.22" duration="34.00" routeLength="366.95" waitingTime="0.00" waitingCount="0" stopTime="0.00" timeLoss="4.24" rerouteNo="1" devices="tripinfo_W-S-sedan.1 routing_W-S-sedan.1" vType="sedan" speedFactor="0.89" vaporized=""/>
    <tripinfo id="E-W-sedan.1" depart="15.00" departLane="+E_1" departPos="5.10" departSpeed="0.00" departDelay="14.00" arrival="50.00" arrivalLane="-W_1" arrivalPos="120.53" arrivalSpeed="12.50" duration="35.00" routeLength="394.90" waitingTime="0.00" waitingCount="0" stopTime="0.00" timeLoss="4.79" rerouteNo="1" devices="tripinfo_E-W-sedan.1 routing_E-W-sedan.1" vType="sedan" speedFactor="0.94" vaporized=""/>
    <tripinfo id="E-N-sedan.2" depart="18.00" departLane="+E_1" departPos="5.10" departSpeed="0.00" departDelay="16.00" arrival="51.00" arrivalLane="-N_1" arrivalPos="100.00" arrivalSpeed="12.86" duration="33.00" routeLength="366.95" waitingTime="0.00" waitingCount="0" stopTime="0.00" timeLoss="4.63" rerouteNo="1" devices="tripinfo_E-N-sedan.2 routing_E-N-sedan.2" vType="sedan" speedFactor="0.95" vaporized=""/>
    <tripinfo id="N-W-sedan.0" depart="6.00" departLane="+N_1" departPos="5.10" departSpeed="0.00" departDelay="6.00" arrival="52.00" arrivalLane="-W_1" arrivalPos="120.53" arrivalSpeed="13.52" duration="46.00" routeLength="366.95" waitingTime="8.00" waitingCount="1" stopTime="0.00" timeLoss="19.43" rerouteNo="1" devices="tripinfo_N-W-sedan.0 routing_N-W-sedan.0" vType="sedan" speedFactor="1.01" vaporized=""/>
    <tripinfo id="W-S-sedan.2" depart="24.00" departLane="+W_1" departPos="5.10" departSpeed="0.00" departDelay="22.00" arrival="54.00" arrivalLane="-S_1" arrivalPos="100.00" arrivalSpeed="13.56" duration="30.00" routeLength="366.95" waitingTime="0.00" waitingCount="0" stopTime="0.00" timeLoss="3.93" rerouteNo="1" devices="tripinfo_W-S-sedan.2 routing_W-S-sedan.2" vType="sedan" speedFactor="1.02" vaporized=""/>
    <tripinfo id="W-E-sedan.2" depart="21.00" departLane="+W_1" departPos="5.10" departSpeed="0.00" departDelay="19.00" arrival="55.00" arrivalLane="-E_1" arrivalPos="120.53" arrivalSpeed="13.08" duration="34.00" routeLength="394.90" waitingTime="0.00" waitingCount="0" stopTime="0.00" timeLoss="4.73" rerouteNo="1" devices="tripinfo_W-E-sedan.2 routing_W-E-sedan.2" vType="sedan" speedFactor="0.99" vaporized=""/>
    <tripinfo id="S-E-sedan.1" depart="12.00" departLane="+S_1" departPos="5.10" departSpeed="0.00" departDelay="11.00" arrival="57.00" arrivalLane="-E_1" arrivalPos="120.53" arrivalSpeed="15.79" duration="45.00" routeLength="366.95" waitingTime="4.00" waitingCount="1" stopTime="0.00" timeLoss="21.97" rerouteNo="1" devices="tripinfo_S-E-sedan.1 routing_S-E-sedan.1" vType="sedan" speedFactor="1.16" vaporized=""/>
    <tripinfo id="E-W-sedan.2" depart="24.00" departLane="+E_1" departPos="5.10" departSpeed="0.00" departDelay="22.00" arrival="60.00" arrivalLane="-W_1" arrivalPos="120.53" arrivalSpeed="12.43" duration="36.00" routeLength="394.90" waitingTime="0.00" waitingCount="0" stopTime="0.00" timeLoss="4.54" rerouteNo="1" devices="tripinfo_E-W-sedan.2 routing_E-W-sedan.2" vType="sedan" speedFactor="0.93" vaporized=""/>
    <tripinfo id="E-N-sedan.3" depart="27.00" departLane="+E_1" departPos="5.10" departSpeed="0.00" departDelay="24.00" arrival="60.00" arrivalLane="-N_1" arrivalPos="100.00" arrivalSpeed="11.70" duration="33.00" routeLength="366.95" waitingTime="0.00" waitingCount="0" stopTime="0.00" timeLoss="3.56" rerouteNo="1" devices="tripinfo_E-N-sedan.3 routing_E-N-sedan.3" vType="sedan" speedFactor="0.90" vaporized=""/>
    <tripinfo id="N-W-sedan.2" depart="24.00" departLane="+N_1" departPos="5.10" departSpeed="0.00" departDelay="22.00" arrival="63.00" arrivalLane="-W_1" arrivalPos="120.53" arrivalSpeed="11.78" duration="39.00" routeLength="366.95" waitingTime="0.00" waitingCount="0" stopTime="0.00" timeLoss="9.81" rerouteNo="1" devices="tripinfo_N-W-sedan.2 routing_N-W-sedan.2" vType="sedan" speedFactor="0.92" vaporized=""/>
    <tripinfo id="W-E-sedan.3" depart="30.00" departLane="+W_1" departPos="5.10" departSpeed="0.00" departDelay="27.00" arrival="63.00" arrivalLane="-E_1" arrivalPos="120.53" arrivalSpeed="13.63" duration="33.00" routeLength="394.90" waitingTime="0.00" waitingCount="0" stopTime="0.00" timeLoss="4.15" rerouteNo="1" devices="tripinfo_W-E-sedan.3 routing_W-E-sedan.3" vType="sedan" speedFactor="1.00" vaporized=""/>
    <tripinfo id="E-N-sedan.4" depart="36.00" departLane="+E_1" departPos="5.10" departSpeed="0.00" departDelay="32.00" arrival="63.00" arrivalLane="-N_1" arrivalPos="100.00" arrivalSpeed="15.24" duration="27.00" routeLength="366.95" waitingTime="0.00" waitingCount="0" stopTime="0.00" timeLoss="4.37" rerouteNo="1" devices="tripinfo_E-N-sedan.4 routing_E-N-sedan.4" vType="sedan" speedFactor="1.17" vaporized=""/>
    <tripinfo id="E-W-sedan.3" depart="33.00" departLane="+E_1" departPos="5.10" departSpeed="0.00" departDelay="30.00" arrival="67.00" arrivalLane="-W_1" arrivalPos="120.53" arrivalSpeed="12.87" duration="34.00" routeLength="394.90" waitingTime="0.00" waitingCount="0" stopTime="0.00" timeLoss="4.20" rerouteNo="1" devices="tripinfo_E-W-sedan.3 routing_E-W-sedan.3" vType="sedan" speedFactor="0.96" vaporized=""/>
    <tripinfo id="W-S-sedan.3" depart="33.00" departLane="+W_1" departPos="5.10" departSpeed="0.00" departDelay="30.00" arrival="67.00" arrivalLane="-S_1" arrivalPos="100.00" arrivalSpeed="11.64" duration="34.00" routeLength="366.95" waitingTime="0.00" waitingCount="0" stopTime="0.00" timeLoss="4.39" rerouteNo="1" devices="tripinfo_W-S-sedan.3 routing_W-S-sedan.3" vType="sedan" speedFactor="0.90" vaporized=""/>
    <tripinfo id="W-E-sedan.4" depart="39.00" departLane="+W_1" departPos="5.10" departSpeed="0.00" departDelay="35.00" arrival="72.00" arrivalLane="-E_1" arrivalPos="120.53" arrivalSpeed="13.47" duration="33.00" routeLength="394.90" waitingTime="0.00" waitingCount="0" stopTime="0.00" timeLoss="4.64" rerouteNo="1" devices="tripinfo_W-E-sedan.4 routing_W-E-sedan.4" vType="sedan" speedFactor="1.02" vaporized=""/>
    <tripinfo id="E-W-sedan.4" depart="42.00" departLane="+E_1" departPos="5.10" departSpeed="0.00" departDelay="38.00" arrival="73.00" arrivalLane="-W_1" arrivalPos="120.53" arrivalSpeed="14.98" duration="31.00" routeLength="394.90" waitingTime="0.00" waitingCount="0" stopTime="0.00" timeLoss="4.90" rerouteNo="1" devices="tripinfo_E-W-sedan.4 routing_E-W-sedan.4" vType="sedan" speedFactor="1.10" vaporized=""/>
    <tripinfo id="W-S-sedan.4" depart="42.00" departLane="+W_1" departPos="5.10" departSpeed="0.00" departDelay="38.00" arrival="74.00" arrivalLane="-S_1" arrivalPos="100.00" arrivalSpeed="13.32" duration="32.00" routeLength="366.95" waitingTime="0.00" waitingCount="0" stopTime="0.00" timeLoss="3.94" rerouteNo="1" devices="tripinfo_W-S-sedan.4 routing_W-S-sedan.4" vType="sedan" speedFactor="0.97" vaporized=""/>
    <tripinfo id="E-N-sedan.5" depart="45.00" departLane="+E_1" departPos="5.10" departSpeed="0.00" departDelay="40.00" arrival="77.00" arrivalLane="-N_1" arrivalPos="100.00" arrivalSpeed="13.22" duration="32.00" routeLength="366.95" waitingTime="0.00" waitingCount="0" stopTime="0.00" timeLoss="4.70" rerouteNo="1" devices="tripinfo_E-N-sedan.5 routing_E-N-sedan.5" vType="sedan" speedFactor="0.99" vaporized=""/>
    <tripinfo id="S-W-sedan.1" depart="15.00" departLane="+S_1" departPos="5.10" departSpeed="0.00" departDelay="14.00" arrival="78.00" arrivalLane="-W_1" arrivalPos="120.53" arrivalSpeed="13.03" duration="63.00" routeLength="406.40" waitingTime="12.00" waitingCount="2" stopTime="0.00" timeLoss="33.92" rerouteNo="1" devices="tripinfo_S-W-sedan.1 routing_S-W-sedan.1" vType="sedan" speedFactor="1.02" vaporized=""/>
    <tripinfo id="W-E-sedan.5" depart="48.00" departLane="+W_1" departPos="5.10" departSpeed="0.00" departDelay="43.00" arrival="80.00" arrivalLane="-E_1" arrivalPos="120.53" arrivalSpeed="13.89" duration="32.00" routeLength="394.90" waitingTime="0.00" waitingCount="0" stopTime="0.00" timeLoss="3.95" rerouteNo="1" devices="tripinfo_W-E-sedan.5 routing_W-E-sedan.5" vType="sedan" speedFactor="1.02" vaporized=""/>
    <tripinfo id="S-W-sedan.2" depart="24.00" departLane="+S_1" departPos="5.10" departSpeed="0.00" departDelay="22.00" arrival="81.00" arrivalLane="-W_1" arrivalPos="120.53" arrivalSpeed="13.31" duration="57.00" routeLength="406.40" waitingTime="8.00" waitingCount="1" stopTime="0.00" timeLoss="27.01" rerouteNo="1" devices="tripinfo_S-W-sedan.2 routing_S-W-sedan.2" vType="sedan" speedFactor="1.01" vaporized=""/>
    <tripinfo id="S-W-sedan.0" depart="6.00" departLane="+S_1" departPos="5.10" departSpeed="0.00" departDelay="6.00" arrival="83.00" arrivalLane="-W_1" arrivalPos="120.53" arrivalSpeed="11.85" duration="77.00" routeLength="406.40" waitingTime="25.00" waitingCount="3" stopTime="0.00" timeLoss="45.60" rerouteNo="1" devices="tripinfo_S-W-sedan.0 routing_S-W-sedan.0" vType="sedan" speedFactor="0.94" vaporized=""/>
    <tripinfo id="W-S-sedan.5" depart="51.00" departLane="+W_1" departPos="5.10" departSpeed="0.00" departDelay="46.00" arrival="83.00" arrivalLane="-S_1" arrivalPos="100.00" arrivalSpeed="12.49" duration="32.00" routeLength="366.95" waitingTime="0.00" waitingCount="0" stopTime="0.00" timeLoss="4.44" rerouteNo="1" devices="tripinfo_W-S-sedan.5 routing_W-S-sedan.5" vType="sedan" speedFactor="0.97" vaporized=""/>
    <tripinfo id="N-E-sedan.1" depart="9.00" departLane="+N_1" departPos="5.10" departSpeed="0.00" departDelay="8.00" arrival="84.00" arrivalLane="-E_1" arrivalPos="120.53" arrivalSpeed="13.52" duration="75.00" routeLength="406.40" waitingTime="23.00" waitingCount="2" stopTime="0.00" timeLoss="46.66" rerouteNo="1" devices="tripinfo_N-E-sedan.1 routing_N-E-sedan.1" vType="sedan" speedFactor="1.05" vaporized=""/>
    <tripinfo id="E-N-sedan.6" depart="54.00" departLane="+E_1" departPos="5.10" departSpeed="0.00" departDelay="48.00" arrival="85.00" arrivalLane="-N_1" arrivalPos="100.00" arrivalSpeed="13.35" duration="31.00" routeLength="366.95" waitingTime="0.00" waitingCount="0" stopTime="0.00" timeLoss="3.93" rerouteNo="1" devices="tripinfo_E-N-sedan.6 routing_E-N-sedan.6" vType="sedan" speedFactor="0.98" vaporized=""/>
    <tripinfo id="E-W-sedan.5" depart="51.00" departLane="+E_1" departPos="5.10" departSpeed="0.00" departDelay="46.00" arrival="88.00" arrivalLane="-W_1" arrivalPos="120.53" arrivalSpeed="11.04" duration="37.00" routeLength="394.90" waitingTime="0.00" waitingCount="0" stopTime="0.00" timeLoss="4.19" rerouteNo="1" devices="tripinfo_E-W-sedan.5 routing_E-W-sedan.5" vType="sedan" speedFactor="0.88" vaporized=""/>
    <tripinfo id="W-E-sedan.6" depart="57.00" departLane="+W_1" departPos="5.10" departSpeed="0.00" departDelay="51.00" arrival="90.00" arrivalLane="-E_1" arrivalPos="120.53" arrivalSpeed="13.57" duration="33.00" routeLength="394.90" waitingTime="0.00" waitingCount="0" stopTime="0.00" timeLoss="4.17" rerouteNo="1" devices="tripinfo_W-E-sedan.6 routing_W-E-sedan.6" vType="sedan" speedFactor="1.02" vaporized=""/>
    <tripinfo id="W-S-sedan.6" depart="60.00" departLane="+W_1" departPos="5.10" departSpeed="0.00" departDelay="54.00" arrival="92.00" arrivalLane="-S_1" arrivalPos="100.00" arrivalSpeed="13.23" duration="32.00" routeLength="366.95" waitingTime="0.00" waitingCount="0" stopTime="0.00" timeLoss="4.30" rerouteNo="1" devices="tripinfo_W-S-sedan.6 routing_W-S-sedan.6" vType="sedan" speedFactor="0.97" vaporized=""/>
    <tripinfo id="E-N-sedan.7" depart="64.00" departLane="+E_1" departPos="5.10" departSpeed="0.00" departDelay="57.00" arrival="94.00" arrivalLane="-N_1" arrivalPos="100.00" arrivalSpeed="14.03" duration="30.00" routeLength="366.95" waitingTime="0.00" waitingCount="0" stopTime="0.00" timeLoss="4.29" rerouteNo="1" devices="tripinfo_E-N-sedan.7 routing_E-N-sedan.7" vType="sedan" speedFactor="1.04" vaporized=""/>
    <tripinfo id="E-W-sedan.6" depart="60.00" departLane="+E_1" departPos="5.10" departSpeed="0.00" departDelay="54.00" arrival="95.00" arrivalLane="-W_1" arrivalPos="120.53" arrivalSpeed="13.07" duration="35.00" routeLength="394.90" waitingTime="0.00" waitingCount="0" stopTime="0.00" timeLoss="5.24" rerouteNo="1" devices="tripinfo_E-W-sedan.6 routing_E-W-sedan.6" vType="sedan" speedFactor="0.98" vaporized=""/>
    <tripinfo id="W-E-sedan.7" depart="66.00" departLane="+W_1" departPos="5.10" departSpeed="0.00" departDelay="59.00" arrival="97.00" arrivalLane="-E_1" arrivalPos="120.53" arrivalSpeed="14.65" duration="31.00" routeLength="394.90" waitingTime="0.00" waitingCount="0" stopTime="0.00" timeLoss="4.49" rerouteNo="1" devices="tripinfo_W-E-sedan.7 routing_W-E-sedan.7" vType="sedan" speedFactor="1.09" vaporized=""/>
    <tripinfo id="W-S-sedan.7" depart="69.00" departLane="+W_1" departPos="5.10" departSpeed="0.00" departDelay="62.00" arrival="100.00" arrivalLane="-S_1" arrivalPos="100.00" arrivalSpeed="14.39" duration="31.00" routeLength="366.95" waitingTime="0.00" waitingCount="0" stopTime="0.00" timeLoss="5.40" rerouteNo="1" devices="tripinfo_W-S-sedan.7 routing_W-S-sedan.7" vType="sedan" speedFactor="1.06" vaporized=""/>
    <tripinfo id="S-E-sedan.3" depart="30.00" departLane="+S_1" departPos="5.10" departSpeed="0.00" departDelay="27.00" arrival="101.00" arrivalLane="-E_1" arrivalPos="120.53" arrivalSpeed="13.53" duration="71.00" routeLength="366.95" waitingTime="30.00" waitingCount="2" stopTime="0.00" timeLoss="45.28" rerouteNo="1" devices="tripinfo_S-E-sedan.3 routing_S-E-sedan.3" vType="sedan" speedFactor="1.04" vaporized=""/>
    <tripinfo id="E-W-sedan.7" depart="70.00" departLane="+E_1" departPos="5.10" departSpeed="0.00" departDelay="63.00" arrival="103.00" arrivalLane="-W_1" arrivalPos="120.53" arrivalSpeed="13.78" duration="33.00" routeLength="394.90" waitingTime="0.00" waitingCount="0" stopTime="0.00" timeLoss="4.49" rerouteNo="1" devices="tripinfo_E-W-sedan.7 routing_E-W-sedan.7" vType="sedan" speedFactor="1.02" vaporized=""/>
    <tripinfo id="S-N-sedan.0" depart="0.00" departLane="+S_1" departPos="5.10" departSpeed="0.00" departDelay="0.00" arrival="104.00" arrivalLane="-N_1" arrivalPos="100.00" arrivalSpeed="13.32" duration="104.00" routeLength="405.26" waitingTime="62.00" waitingCount="2" stopTime="0.00" timeLoss="75.74" rerouteNo="1" devices="tripinfo_S-N-sedan.0 routing_S-N-sedan.0" vType="sedan" speedFactor="1.05" vaporized=""/>
    <tripinfo id="W-N-sedan.1" depart="9.00" departLane="+W_1" departPos="5.10" departSpeed="0.00" departDelay="8.00" arrival="104.00" arrivalLane="-N_2" arrivalPos="100.00" arrivalSpeed="13.89" duration="95.00" routeLength="406.40" waitingTime="56.00" waitingCount="1" stopTime="0.00" timeLoss="65.69" rerouteNo="1" devices="tripinfo_W-N-sedan.1 routing_W-N-sedan.1" vType="sedan" speedFactor="1.01" vaporized=""/>
    <tripinfo id="N-S-sedan.0" depart="3.00" departLane="+N_1" departPos="5.10" departSpeed="0.00" departDelay="3.00" arrival="105.00" arrivalLane="-S_1" arrivalPos="100.00" arrivalSpeed="11.97" duration="102.00" routeLength="405.26" waitingTime="56.00" waitingCount="2" stopTime="0.00" timeLoss="70.78" rerouteNo="1" devices="tripinfo_N-S-sedan.0 routing_N-S-sedan.0" vType="sedan" speedFactor="0.94" vaporized=""/>
    <tripinfo id="N-E-sedan.2" depart="18.00" departLane="+N_1" departPos="5.10" departSpeed="0.00" departDelay="16.00" arrival="106.00" arrivalLane="-E_1" arrivalPos="120.53" arrivalSpeed="11.24" duration="88.00" routeLength="406.40" waitingTime="30.00" waitingCount="3" stopTime="0.00" timeLoss="51.68" rerouteNo="1" devices="tripinfo_N-E-sedan.2 routing_N-E-sedan.2" vType="sedan" speedFactor="0.83" vaporized=""/>
    <tripinfo id="N-S-sedan.2" depart="21.00" departLane="+N_1" departPos="5.10" departSpeed="0.00" departDelay="19.00" arrival="106.00" arrivalLane="-S_2" arrivalPos="100.00" arrivalSpeed="11.38" duration="85.00" routeLength="405.26" waitingTime="41.00" waitingCount="1" stopTime="0.00" timeLoss="51.17" rerouteNo="1" devices="tripinfo_N-S-sedan.2 routing_N-S-sedan.2" vType="sedan" speedFactor="0.87" vaporized=""/>
    <tripinfo id="S-N-sedan.2" depart="18.00" departLane="+S_1" departPos="5.10" departSpeed="0.00" departDelay="16.00" arrival="106.00" arrivalLane="-N_1" arrivalPos="100.00" arrivalSpeed="15.96" duration="88.00" routeLength="405.26" waitingTime="44.00" waitingCount="1" stopTime="0.00" timeLoss="62.42" rerouteNo="1" devices="tripinfo_S-N-sedan.2 routing_S-N-sedan.2" vType="sedan" speedFactor="1.18" vaporized=""/>
    <tripinfo id="N-S-sedan.1" depart="12.00" departLane="+N_1" departPos="5.10" departSpeed="0.00" departDelay="11.00" arrival="107.00" arrivalLane="-S_1" arrivalPos="100.00" arrivalSpeed="14.87" duration="95.00" routeLength="405.26" waitingTime="48.00" waitingCount="2" stopTime="0.00" timeLoss="68.44" rerouteNo="1" devices="tripinfo_N-S-sedan.1 routing_N-S-sedan.1" vType="sedan" speedFactor="1.12" vaporized=""/>
    <tripinfo id="S-N-sedan.1" depart="9.00" departLane="+S_1" departPos="5.10" departSpeed="0.00" departDelay="8.00" arrival="107.00" arrivalLane="-N_2" arrivalPos="100.00" arrivalSpeed="11.88" duration="98.00" routeLength="405.26" waitingTime="51.00" waitingCount="2" stopTime="0.00" timeLoss="66.81" rerouteNo="1" devices="tripinfo_S-N-sedan.1 routing_S-N-sedan.1" vType="sedan" speedFactor="0.94" vaporized=""/>
    <tripinfo id="N-S-sedan.3" depart="30.00" departLane="+N_1" departPos="5.10" departSpeed="0.00" departDelay="27.00" arrival="108.00" arrivalLane="-S_2" arrivalPos="100.00" arrivalSpeed="16.06" duration="78.00" routeLength="405.26" waitingTime="36.00" waitingCount="1" stopTime="0.00" timeLoss="52.40" rerouteNo="1" devices="tripinfo_N-S-sedan.3 routing_N-S-sedan.3" vType="sedan" speedFactor="1.18" vaporized=""/>
    <tripinfo id="S-N-sedan.3" depart="27.00" departLane="+S_1" departPos="5.10" departSpeed="0.00" departDelay="24.00" arrival="108.00" arrivalLane="-N_1" arrivalPos="100.00" arrivalSpeed="14.58" duration="81.00" routeLength="405.26" waitingTime="43.00" waitingCount="1" stopTime="0.00" timeLoss="53.42" rerouteNo="1" devices="tripinfo_S-N-sedan.3 routing_S-N-sedan.3" vType="sedan" speedFactor="1.09" vaporized=""/>
    <tripinfo id="N-W-sedan.4" depart="42.00" departLane="+N_1" departPos="5.10" departSpeed="0.00" departDelay="38.00" arrival="108.00" arrivalLane="-W_1" arrivalPos="120.53" arrivalSpeed="10.80" duration="66.00" routeLength="366.95" waitingTime="20.00" waitingCount="2" stopTime="0.00" timeLoss="34.58" rerouteNo="1" devices="tripinfo_N-W-sedan.4 routing_N-W-sedan.4" vType="sedan" speedFactor="0.85" vaporized=""/>
    <tripinfo id="E-S-sedan.2" depart="21.00" departLane="+E_1" departPos="5.10" departSpeed="0.00" departDelay="19.00" arrival="109.00" arrivalLane="-S_2" arrivalPos="100.00" arrivalSpeed="15.11" duration="88.00" routeLength="406.40" waitingTime="42.00" waitingCount="2" stopTime="0.00" timeLoss="61.93" rerouteNo="1" devices="tripinfo_E-S-sedan.2 routing_E-S-sedan.2" vType="sedan" speedFactor="1.13" vaporized=""/>
    <tripinfo id="W-N-sedan.3" depart="27.00" departLane="+W_1" departPos="5.10" departSpeed="0.00" departDelay="24.00" arrival="109.00" arrivalLane="-N_2" arrivalPos="100.00" arrivalSpeed="13.87" duration="82.00" routeLength="406.40" waitingTime="40.00" waitingCount="1" stopTime="0.00" timeLoss="54.66" rerouteNo="1" devices="tripinfo_W-N-sedan.3 routing_W-N-sedan.3" vType="sedan" speedFactor="1.09" vaporized=""/>
    <tripinfo id="W-E-sedan.8" depart="75.00" departLane="+W_1" departPos="5.10" departSpeed="0.00" departDelay="67.00" arrival="109.00" arrivalLane="-E_1" arrivalPos="120.53" arrivalSpeed="13.90" duration="34.00" routeLength="394.90" waitingTime="0.00" waitingCount="0" stopTime="0.00" timeLoss="5.29" rerouteNo="1" devices="tripinfo_W-E-sedan.8 routing_W-E-sedan.8" vType="sedan" speedFactor="1.01" vaporized=""/>
    <tripinfo id="S-W-sedan.3" depart="33.00" departLane="+S_1" departPos="5.10" departSpeed="0.00" departDelay="30.00" arrival="110.00" arrivalLane="-W_1" arrivalPos="120.53" arrivalSpeed="13.44" duration="77.00" routeLength="406.40" waitingTime="26.00" waitingCount="2" stopTime="0.00" timeLoss="48.15" rerouteNo="1" devices="tripinfo_S-W-sedan.3 routing_S-W-sedan.3" vType="sedan" speedFactor="1.04" vaporized=""/>
    <tripinfo id="N-S-sedan.4" depart="39.00" departLane="+N_1" departPos="5.10" departSpeed="0.00" departDelay="35.00" arrival="110.00" arrivalLane="-S_1" arrivalPos="100.00" arrivalSpeed="10.59" duration="71.00" routeLength="405.26" waitingTime="28.00" waitingCount="1" stopTime="0.00" timeLoss="36.54" rerouteNo="1" devices="tripinfo_N-S-sedan.4 routing_N-S-sedan.4" vType="sedan" speedFactor="0.85" vaporized=""/>
    <tripinfo id="S-N-sedan.4" depart="36.00" departLane="+S_1" departPos="5.10" departSpeed="0.00" departDelay="32.00" arrival="110.00" arrivalLane="-N_1" arrivalPos="100.00" arrivalSpeed="13.63" duration="74.00" routeLength="405.26" waitingTime="35.00" waitingCount="1" stopTime="0.00" timeLoss="44.47" rerouteNo="1" devices="tripinfo_S-N-sedan.4 routing_S-N-sedan.4" vType="sedan" speedFactor="1.00" vaporized=""/>
    <tripinfo id="E-S-sedan.4" depart="39.00" departLane="+E_1" departPos="5.10" departSpeed="0.00" departDelay="35.00" arrival="111.00" arrivalLane="-S_2" arrivalPos="100.00" arrivalSpeed="13.44" duration="72.00" routeLength="406.40" waitingTime="24.00" waitingCount="2" stopTime="0.00" timeLoss="42.84" rerouteNo="1" devices="tripinfo_E-S-sedan.4 routing_E-S-sedan.4" vType="sedan" speedFactor="1.02" vaporized=""/>
    <tripinfo id="W-N-sedan.4" depart="36.00" departLane="+W_1" departPos="5.10" departSpeed="0.00" departDelay="32.00" arrival="111.00" arrivalLane="-N_2" arrivalPos="100.00" arrivalSpeed="15.03" duration="75.00" routeLength="406.40" waitingTime="32.00" waitingCount="1" stopTime="0.00" timeLoss="48.52" rerouteNo="1" devices="tripinfo_W-N-sedan.4 routing_W-N-sedan.4" vType="sedan" speedFactor="1.14" vaporized=""/>
    <tripinfo id="W-N-sedan.2" depart="18.00" departLane="+W_1" departPos="5.10" departSpeed="0.00" departDelay="16.00" arrival="112.00" arrivalLane="-N_2" arrivalPos="100.00" arrivalSpeed="15.82" duration="94.00" routeLength="406.40" waitingTime="50.00" waitingCount="2" stopTime="0.00" timeLoss="68.71" rerouteNo="1" devices="tripinfo_W-N-sedan.2 routing_W-N-sedan.2" vType="sedan" speedFactor="1.17" vaporized=""/>
    <tripinfo id="E-S-sedan.3" depart="30.00" departLane="+E_1" departPos="5.10" departSpeed="0.00" departDelay="27.00" arrival="112.00" arrivalLane="-S_1" arrivalPos="100.00" arrivalSpeed="14.26" duration="82.00" routeLength="406.40" waitingTime="33.00" waitingCount="2" stopTime="0.00" timeLoss="52.98" rerouteNo="1" devices="tripinfo_E-S-sedan.3 routing_E-S-sedan.3" vType="sedan" speedFactor="1.03" vaporized=""/>
    <tripinfo id="W-N-sedan.5" depart="45.00" departLane="+W_1" departPos="5.10" departSpeed="0.00" departDelay="40.00" arrival="112.00" arrivalLane="-N_1" arrivalPos="100.00" arrivalSpeed="13.26" duration="67.00" routeLength="406.40" waitingTime="24.00" waitingCount="1" stopTime="0.00" timeLoss="37.89" rerouteNo="1" devices="tripinfo_W-N-sedan.5 routing_W-N-sedan.5" vType="sedan" speedFactor="1.02" vaporized=""/>
    <tripinfo id="E-S-sedan.5" depart="48.00" departLane="+E_1" departPos="5.10" departSpeed="0.00" departDelay="43.00" arrival="113.00" arrivalLane="-S_2" arrivalPos="100.00" arrivalSpeed="12.42" duration="65.00" routeLength="406.40" waitingTime="18.00" waitingCount="1" stopTime="0.00" timeLoss="33.26" rerouteNo="1" devices="tripinfo_E-S-sedan.5 routing_E-S-sedan.5" vType="sedan" speedFactor="0.94" vaporized=""/>
    <tripinfo id="E-W-sedan.8" depart="79.00" departLane="+E_1" departPos="5.10" departSpeed="0.00" departDelay="71.00" arrival="113.00" arrivalLane="-W_1" arrivalPos="120.53" arrivalSpeed="13.02" duration="34.00" routeLength="394.90" waitingTime="0.00" waitingCount="0" stopTime="0.00" timeLoss="4.02" rerouteNo="1" devices="tripinfo_E-W-sedan.8 routing_E-W-sedan.8" vType="sedan" speedFactor="0.96" vaporized=""/>
    <tripinfo id="E-S-sedan.1" depart="12.00" departLane="+E_1" departPos="5.10" departSpeed="0.00" departDelay="11.00" arrival="114.00" arrivalLane="-S_1" arrivalPos="100.00" arrivalSpeed="10.93" duration="102.00" routeLength="406.40" waitingTime="51.00" waitingCount="2" stopTime="0.00" timeLoss="68.20" rerouteNo="1" devices="tripinfo_E-S-sedan.1 routing_E-S-sedan.1" vType="sedan" speedFactor="0.88" vaporized=""/>
    <tripinfo id="W-N-sedan.6" depart="54.00" departLane="+W_1" departPos="5.10" departSpeed="0.00" departDelay="48.00" arrival="114.00" arrivalLane="-N_2" arrivalPos="100.00" arrivalSpeed="12.98" duration="60.00" routeLength="406.40" waitingTime="19.00" waitingCount="1" stopTime="0.00" timeLoss="30.66" rerouteNo="1" devices="tripinfo_W-N-sedan.6 routing_W-N-sedan.6" vType="sedan" speedFactor="1.00" vaporized=""/>
    <tripinfo id="E-S-sedan.6" depart="57.00" departLane="+E_1" departPos="5.10" departSpeed="0.00" departDelay="51.00" arrival="115.00" arrivalLane="-S_2" arrivalPos="100.00" arrivalSpeed="13.83" duration="58.00" routeLength="406.40" waitingTime="15.00" waitingCount="1" stopTime="0.00" timeLoss="28.75" rerouteNo="1" devices="tripinfo_E-S-sedan.6 routing_E-S-sedan.6" vType="sedan" speedFactor="1.03" vaporized=""/>