<?xml version="1.0" encoding="UTF-8"?>

<!-- generated on 2023-04-09 15:50:55 by Eclipse SUMO GUI Version 1.15.0
<configuration xmlns:xsi="http://www.w3.org/2001/XMLSchema-instance" xsi:noNamespaceSchemaLocation="http://sumo.dlr.de/xsd/sumoConfiguration.xsd">

    <input>
        <net-file value="Z:\Users\708891\Desktop\AP research\Simulations\roundabout.net.xml"/>
        <route-files value="Z:\Users\708891\Desktop\AP research\Simulations\unifiedDistribution.rou.xml"/>
    </input>

    <output>
        <tripinfo-output value="Z:\Users\708891\Desktop\AP research\Simulations\output\roundabout\roundaboutTripinfo3.xml"/>
        <collision-output value="Z:\Users\708891\Desktop\AP research\Simulations\output\roundabout\roundaboutCollision3.xml"/>
        <statistic-output value="Z:\Users\708891\Desktop\AP research\Simulations\output\roundabout\roundaboutNetworkStats3.xml"/>
    </output>

</configuration>
-->

<tripinfos xmlns:xsi="http://www.w3.org/2001/XMLSchema-instance" xsi:noNamespaceSchemaLocation="http://sumo.dlr.de/xsd/tripinfo_file.xsd">
    <tripinfo id="E-N-sedan.0" depart="0.00" departLane="+E_1" departPos="5.10" departSpeed="0.00" departDelay="0.00" arrival="32.00" arrivalLane="-N_1" arrivalPos="100.00" arrivalSpeed="14.61" duration="32.00" routeLength="378.18" waitingTime="0.00" waitingCount="0" stopTime="0.00" timeLoss="6.41" rerouteNo="1" devices="tripinfo_E-N-sedan.0 routing_E-N-sedan.0" vType="sedan" speedFactor="1.08" vaporized=""/>
    <tripinfo id="S-N-sedan.0" depart="0.00" departLane="+S_1" departPos="5.10" departSpeed="0.00" departDelay="0.00" arrival="35.00" arrivalLane="-N_1" arrivalPos="100.00" arrivalSpeed="14.24" duration="35.00" routeLength="422.80" waitingTime="0.00" waitingCount="0" stopTime="0.00" timeLoss="5.42" rerouteNo="1" devices="tripinfo_S-N-sedan.0 routing_S-N-sedan.0" vType="sedan" speedFactor="1.05" vaporized=""/>
    <tripinfo id="S-E-sedan.0" depart="1.00" departLane="+S_1" departPos="5.10" departSpeed="0.00" departDelay="1.00" arrival="36.00" arrivalLane="-E_1" arrivalPos="100.00" arrivalSpeed="12.15" duration="35.00" routeLength="378.18" waitingTime="0.00" waitingCount="0" stopTime="0.00" timeLoss="4.18" rerouteNo="1" devices="tripinfo_S-E-sedan.0 routing_S-E-sedan.0" vType="sedan" speedFactor="0.89" vaporized=""/>
    <tripinfo id="W-S-sedan.0" depart="4.00" departLane="+W_1" departPos="5.10" departSpeed="0.00" departDelay="4.00" arrival="36.00" arrivalLane="-S_1" arrivalPos="100.00" arrivalSpeed="13.91" duration="32.00" routeLength="378.18" waitingTime="0.00" waitingCount="0" stopTime="0.00" timeLoss="4.81" rerouteNo="1" devices="tripinfo_W-S-sedan.0 routing_W-S-sedan.0" vType="sedan" speedFactor="1.03" vaporized=""/>
    <tripinfo id="N-W-sedan.0" depart="4.00" departLane="+N_1" departPos="5.10" departSpeed="0.00" departDelay="4.00" arrival="37.00" arrivalLane="-W_1" arrivalPos="100.00" arrivalSpeed="13.74" duration="33.00" routeLength="378.18" waitingTime="0.00" waitingCount="0" stopTime="0.00" timeLoss="5.90" rerouteNo="1" devices="tripinfo_N-W-sedan.0 routing_N-W-sedan.0" vType="sedan" speedFactor="1.01" vaporized=""/>
    <tripinfo id="N-E-sedan.0" depart="0.00" departLane="+N_1" departPos="5.10" departSpeed="0.00" departDelay="0.00" arrival="38.00" arrivalLane="-E_1" arrivalPos="100.00" arrivalSpeed="14.21" duration="38.00" routeLength="467.42" waitingTime="0.00" waitingCount="0" stopTime="0.00" timeLoss="6.00" rerouteNo="1" devices="tripinfo_N-E-sedan.0 routing_N-E-sedan.0" vType="sedan" speedFactor="1.06" vaporized=""/>
    <tripinfo id="N-S-sedan.0" depart="1.00" departLane="+N_1" departPos="5.10" departSpeed="0.00" departDelay="1.00" arrival="40.00" arrivalLane="-S_1" arrivalPos="100.00" arrivalSpeed="12.22" duration="39.00" routeLength="422.80" waitingTime="0.00" waitingCount="0" stopTime="0.00" timeLoss="6.31" rerouteNo="1" devices="tripinfo_N-S-sedan.0 routing_N-S-sedan.0" vType="sedan" speedFactor="0.94" vaporized=""/>
    <tripinfo id="S-E-sedan.1" depart="7.00" departLane="+S_1" departPos="5.10" departSpeed="0.00" departDelay="6.00" arrival="40.00" arrivalLane="-E_1" arrivalPos="100.00" arrivalSpeed="14.93" duration="33.00" routeLength="378.18" waitingTime="0.00" waitingCount="0" stopTime="0.00" timeLoss="8.94" rerouteNo="1" devices="tripinfo_S-E-sedan.1 routing_S-E-sedan.1" vType="sedan" speedFactor="1.16" vaporized=""/>
    <tripinfo id="E-N-sedan.1" depart="7.00" departLane="+E_1" departPos="5.10" departSpeed="0.00" departDelay="6.00" arrival="42.00" arrivalLane="-N_1" arrivalPos="100.00" arrivalSpeed="12.49" duration="35.00" routeLength="378.18" waitingTime="0.00" waitingCount="0" stopTime="0.00" timeLoss="5.23" rerouteNo="1" devices="tripinfo_E-N-sedan.1 routing_E-N-sedan.1" vType="sedan" speedFactor="0.93" vaporized=""/>
    <tripinfo id="S-W-sedan.0" depart="4.00" departLane="+S_1" departPos="5.10" departSpeed="0.00" departDelay="4.00" arrival="45.00" arrivalLane="-W_1" arrivalPos="100.00" arrivalSpeed="13.02" duration="41.00" routeLength="467.42" waitingTime="0.00" waitingCount="0" stopTime="0.00" timeLoss="4.26" rerouteNo="1" devices="tripinfo_S-W-sedan.0 routing_S-W-sedan.0" vType="sedan" speedFactor="0.94" vaporized=""/>
    <tripinfo id="N-E-sedan.1" depart="7.00" departLane="+N_1" departPos="5.10" departSpeed="0.00" departDelay="6.00" arrival="45.00" arrivalLane="-E_1" arrivalPos="100.00" arrivalSpeed="13.53" duration="38.00" routeLength="467.42" waitingTime="0.00" waitingCount="0" stopTime="0.00" timeLoss="5.40" rerouteNo="1" devices="tripinfo_N-E-sedan.1 routing_N-E-sedan.1" vType="sedan" speedFactor="1.05" vaporized=""/>
    <tripinfo id="N-W-sedan.1" depart="11.00" departLane="+N_1" departPos="5.10" departSpeed="0.00" departDelay="10.00" arrival="46.00" arrivalLane="-W_1" arrivalPos="100.00" arrivalSpeed="13.17" duration="35.00" routeLength="378.18" waitingTime="0.00" waitingCount="0" stopTime="0.00" timeLoss="7.44" rerouteNo="1" devices="tripinfo_N-W-sedan.1 routing_N-W-sedan.1" vType="sedan" speedFactor="0.99" vaporized=""/>
    <tripinfo id="W-E-sedan.1" depart="8.00" departLane="+W_1" departPos="5.10" departSpeed="0.00" departDelay="7.00" arrival="47.00" arrivalLane="-E_1" arrivalPos="100.00" arrivalSpeed="13.44" duration="39.00" routeLength="422.80" waitingTime="0.00" waitingCount="0" stopTime="0.00" timeLoss="7.75" rerouteNo="1" devices="tripinfo_W-E-sedan.1 routing_W-E-sedan.1" vType="sedan" speedFactor="0.97" vaporized=""/>
    <tripinfo id="W-S-sedan.1" depart="10.00" departLane="+W_1" departPos="5.10" departSpeed="0.00" departDelay="9.00" arrival="47.00" arrivalLane="-S_1" arrivalPos="100.00" arrivalSpeed="11.90" duration="37.00" routeLength="378.18" waitingTime="0.00" waitingCount="0" stopTime="0.00" timeLoss="5.47" rerouteNo="1" devices="tripinfo_W-S-sedan.1 routing_W-S-sedan.1" vType="sedan" speedFactor="0.89" vaporized=""/>
    <tripinfo id="S-N-sedan.1" depart="5.00" departLane="+S_1" departPos="5.10" departSpeed="0.00" departDelay="4.00" arrival="48.00" arrivalLane="-N_1" arrivalPos="100.00" arrivalSpeed="12.05" duration="43.00" routeLength="422.80" waitingTime="0.00" waitingCount="0" stopTime="0.00" timeLoss="10.24" rerouteNo="1" devices="tripinfo_S-N-sedan.1 routing_S-N-sedan.1" vType="sedan" speedFactor="0.94" vaporized=""/>
    <tripinfo id="E-S-sedan.0" depart="3.00" departLane="+E_1" departPos="5.10" departSpeed="0.00" departDelay="3.00" arrival="50.00" arrivalLane="-S_1" arrivalPos="100.00" arrivalSpeed="13.76" duration="47.00" routeLength="467.42" waitingTime="3.00" waitingCount="1" stopTime="0.00" timeLoss="14.24" rerouteNo="1" devices="tripinfo_E-S-sedan.0 routing_E-S-sedan.0" vType="sedan" speedFactor="1.03" vaporized=""/>
    <tripinfo id="E-N-sedan.2" depart="14.00" departLane="+E_1" departPos="5.10" departSpeed="0.00" departDelay="12.00" arrival="51.00" arrivalLane="-N_1" arrivalPos="100.00" arrivalSpeed="12.06" duration="37.00" routeLength="378.18" waitingTime="0.00" waitingCount="0" stopTime="0.00" timeLoss="7.96" rerouteNo="1" devices="tripinfo_E-N-sedan.2 routing_E-N-sedan.2" vType="sedan" speedFactor="0.95" vaporized=""/>
    <tripinfo id="E-W-sedan.0" depart="4.00" departLane="+E_1" departPos="5.10" departSpeed="0.00" departDelay="4.00" arrival="52.00" arrivalLane="-W_1" arrivalPos="100.00" arrivalSpeed="11.35" duration="48.00" routeLength="422.80" waitingTime="0.00" waitingCount="0" stopTime="0.00" timeLoss="10.89" rerouteNo="1" devices="tripinfo_E-W-sedan.0 routing_E-W-sedan.0" vType="sedan" speedFactor="0.83" vaporized=""/>
    <tripinfo id="W-E-sedan.2" depart="14.00" departLane="+W_1" departPos="5.10" departSpeed="0.00" departDelay="12.00" arrival="52.00" arrivalLane="-E_1" arrivalPos="100.00" arrivalSpeed="12.65" duration="38.00" routeLength="422.80" waitingTime="0.00" waitingCount="0" stopTime="0.00" timeLoss="6.78" rerouteNo="1" devices="tripinfo_W-E-sedan.2 routing_W-E-sedan.2" vType="sedan" speedFactor="0.99" vaporized=""/>
    <tripinfo id="W-S-sedan.2" depart="17.00" departLane="+W_1" departPos="5.10" departSpeed="0.00" departDelay="15.00" arrival="53.00" arrivalLane="-S_1" arrivalPos="100.00" arrivalSpeed="14.09" duration="36.00" routeLength="378.18" waitingTime="0.00" waitingCount="0" stopTime="0.00" timeLoss="8.49" rerouteNo="1" devices="tripinfo_W-S-sedan.2 routing_W-S-sedan.2" vType="sedan" speedFactor="1.02" vaporized=""/>
    <tripinfo id="E-W-sedan.1" depart="11.00" departLane="+E_1" departPos="5.10" departSpeed="0.00" departDelay="10.00" arrival="54.00" arrivalLane="-W_1" arrivalPos="100.00" arrivalSpeed="12.63" duration="43.00" routeLength="422.80" waitingTime="0.00" waitingCount="0" stopTime="0.00" timeLoss="9.95" rerouteNo="1" devices="tripinfo_E-W-sedan.1 routing_E-W-sedan.1" vType="sedan" speedFactor="0.94" vaporized=""/>
    <tripinfo id="W-N-sedan.0" depart="0.00" departLane="+W_1" departPos="5.10" departSpeed="0.00" departDelay="0.00" arrival="56.00" arrivalLane="-N_1" arrivalPos="100.00" arrivalSpeed="11.60" duration="56.00" routeLength="467.42" waitingTime="8.00" waitingCount="1" stopTime="0.00" timeLoss="16.73" rerouteNo="1" devices="tripinfo_W-N-sedan.0 routing_W-N-sedan.0" vType="sedan" speedFactor="0.86" vaporized=""/>
    <tripinfo id="N-W-sedan.2" depart="19.00" departLane="+N_1" departPos="5.10" departSpeed="0.00" departDelay="17.00" arrival="56.00" arrivalLane="-W_1" arrivalPos="100.00" arrivalSpeed="11.92" duration="37.00" routeLength="378.18" waitingTime="0.00" waitingCount="0" stopTime="0.00" timeLoss="6.51" rerouteNo="1" devices="tripinfo_N-W-sedan.2 routing_N-W-sedan.2" vType="sedan" speedFactor="0.92" vaporized=""/>
    <tripinfo id="N-W-sedan.3" depart="26.00" departLane="+N_1" departPos="5.10" departSpeed="0.00" departDelay="23.00" arrival="57.00" arrivalLane="-W_1" arrivalPos="100.00" arrivalSpeed="15.22" duration="31.00" routeLength="378.18" waitingTime="0.00" waitingCount="0" stopTime="0.00" timeLoss="6.06" rerouteNo="1" devices="tripinfo_N-W-sedan.3 routing_N-W-sedan.3" vType="sedan" speedFactor="1.10" vaporized=""/>
    <tripinfo id="E-N-sedan.3" depart="21.00" departLane="+E_1" departPos="5.10" departSpeed="0.00" departDelay="18.00" arrival="58.00" arrivalLane="-N_1" arrivalPos="100.00" arrivalSpeed="11.73" duration="37.00" routeLength="378.18" waitingTime="0.00" waitingCount="0" stopTime="0.00" timeLoss="6.57" rerouteNo="1" devices="tripinfo_E-N-sedan.3 routing_E-N-sedan.3" vType="sedan" speedFactor="0.90" vaporized=""/>
    <tripinfo id="E-S-sedan.1" depart="10.00" departLane="+E_1" departPos="5.10" departSpeed="0.00" departDelay="9.00" arrival="60.00" arrivalLane="-S_1" arrivalPos="100.00" arrivalSpeed="11.06" duration="50.00" routeLength="467.42" waitingTime="1.00" waitingCount="1" stopTime="0.00" timeLoss="11.56" rerouteNo="1" devices="tripinfo_E-S-sedan.1 routing_E-S-sedan.1" vType="sedan" speedFactor="0.88" vaporized=""/>
    <tripinfo id="S-N-sedan.2" depart="11.00" departLane="+S_1" departPos="5.10" departSpeed="0.00" departDelay="9.00" arrival="60.00" arrivalLane="-N_1" arrivalPos="100.00" arrivalSpeed="15.09" duration="49.00" routeLength="422.80" waitingTime="6.00" waitingCount="1" stopTime="0.00" timeLoss="22.51" rerouteNo="1" devices="tripinfo_S-N-sedan.2 routing_S-N-sedan.2" vType="sedan" speedFactor="1.18" vaporized=""/>
    <tripinfo id="W-E-sedan.3" depart="21.00" departLane="+W_1" departPos="5.10" departSpeed="0.00" departDelay="18.00" arrival="60.00" arrivalLane="-E_1" arrivalPos="100.00" arrivalSpeed="13.11" duration="39.00" routeLength="422.80" waitingTime="0.00" waitingCount="0" stopTime="0.00" timeLoss="8.05" rerouteNo="1" devices="tripinfo_W-E-sedan.3 routing_W-E-sedan.3" vType="sedan" speedFactor="1.00" vaporized=""/>
    <tripinfo id="S-W-sedan.1" depart="10.00" departLane="+S_1" departPos="5.10" departSpeed="0.00" departDelay="9.00" arrival="61.00" arrivalLane="-W_1" arrivalPos="100.00" arrivalSpeed="13.43" duration="51.00" routeLength="467.42" waitingTime="8.00" waitingCount="1" stopTime="0.00" timeLoss="17.70" rerouteNo="1" devices="tripinfo_S-W-sedan.1 routing_S-W-sedan.1" vType="sedan" speedFactor="1.02" vaporized=""/>
    <tripinfo id="W-N-sedan.3" depart="20.00" departLane="+W_1" departPos="5.10" departSpeed="0.00" departDelay="17.00" arrival="61.00" arrivalLane="-N_1" arrivalPos="100.00" arrivalSpeed="15.02" duration="41.00" routeLength="467.42" waitingTime="0.00" waitingCount="0" stopTime="0.00" timeLoss="10.06" rerouteNo="1" devices="tripinfo_W-N-sedan.3 routing_W-N-sedan.3" vType="sedan" speedFactor="1.09" vaporized=""/>
    <tripinfo id="S-E-sedan.2" depart="13.00" departLane="+S_1" departPos="5.10" departSpeed="0.00" departDelay="11.00" arrival="62.00" arrivalLane="-E_1" arrivalPos="100.00" arrivalSpeed="15.74" duration="49.00" routeLength="378.18" waitingTime="6.00" waitingCount="1" stopTime="0.00" timeLoss="24.46" rerouteNo="1" devices="tripinfo_S-E-sedan.2 routing_S-E-sedan.2" vType="sedan" speedFactor="1.15" vaporized=""/>
    <tripinfo id="W-S-sedan.3" depart="24.00" departLane="+W_1" departPos="5.10" departSpeed="0.00" departDelay="21.00" arrival="62.00" arrivalLane="-S_1" arrivalPos="100.00" arrivalSpeed="11.81" duration="38.00" routeLength="378.18" waitingTime="0.00" waitingCount="0" stopTime="0.00" timeLoss="7.49" rerouteNo="1" devices="tripinfo_W-S-sedan.3 routing_W-S-sedan.3" vType="sedan" speedFactor="0.90" vaporized=""/>
    <tripinfo id="E-N-sedan.4" depart="28.00" departLane="+E_1" departPos="5.10" departSpeed="0.00" departDelay="24.00" arrival="64.00" arrivalLane="-N_1" arrivalPos="100.00" arrivalSpeed="16.13" duration="36.00" routeLength="378.18" waitingTime="0.00" waitingCount="0" stopTime="0.00" timeLoss="11.97" rerouteNo="1" devices="tripinfo_E-N-sedan.4 routing_E-N-sedan.4" vType="sedan" speedFactor="1.17" vaporized=""/>
    <tripinfo id="S-E-sedan.3" depart="20.00" departLane="+S_1" departPos="5.10" departSpeed="0.00" departDelay="17.00" arrival="65.00" arrivalLane="-E_1" arrivalPos="100.00" arrivalSpeed="13.68" duration="45.00" routeLength="378.18" waitingTime="1.00" waitingCount="1" stopTime="0.00" timeLoss="18.37" rerouteNo="1" devices="tripinfo_S-E-sedan.3 routing_S-E-sedan.3" vType="sedan" speedFactor="1.04" vaporized=""/>
    <tripinfo id="W-E-sedan.0" depart="1.00" departLane="+W_1" departPos="5.10" departSpeed="0.00" departDelay="1.00" arrival="67.00" arrivalLane="-E_1" arrivalPos="100.00" arrivalSpeed="14.99" duration="66.00" routeLength="422.80" waitingTime="17.00" waitingCount="2" stopTime="0.00" timeLoss="37.34" rerouteNo="1" devices="tripinfo_W-E-sedan.0 routing_W-E-sedan.0" vType="sedan" speedFactor="1.09" vaporized=""/>
    <tripinfo id="W-S-sedan.4" depart="31.00" departLane="+W_1" departPos="5.10" departSpeed="0.00" departDelay="27.00" arrival="67.00" arrivalLane="-S_1" arrivalPos="100.00" arrivalSpeed="12.53" duration="36.00" routeLength="378.18" waitingTime="0.00" waitingCount="0" stopTime="0.00" timeLoss="7.23" rerouteNo="1" devices="tripinfo_W-S-sedan.4 routing_W-S-sedan.4" vType="sedan" speedFactor="0.97" vaporized=""/>
    <tripinfo id="N-S-sedan.1" depart="8.00" departLane="+N_1" departPos="5.10" departSpeed="0.00" departDelay="7.00" arrival="68.00" arrivalLane="-S_1" arrivalPos="100.00" arrivalSpeed="14.45" duration="60.00" routeLength="422.80" waitingTime="18.00" waitingCount="1" stopTime="0.00" timeLoss="32.82" rerouteNo="1" devices="tripinfo_N-S-sedan.1 routing_N-S-sedan.1" vType="sedan" speedFactor="1.12" vaporized=""/>
    <tripinfo id="N-S-sedan.3" depart="23.00" departLane="+N_1" departPos="5.10" departSpeed="0.00" departDelay="20.00" arrival="70.00" arrivalLane="-S_1" arrivalPos="100.00" arrivalSpeed="15.82" duration="47.00" routeLength="422.80" waitingTime="0.00" waitingCount="0" stopTime="0.00" timeLoss="20.70" rerouteNo="1" devices="tripinfo_N-S-sedan.3 routing_N-S-sedan.3" vType="sedan" speedFactor="1.18" vaporized=""/>
    <tripinfo id="E-W-sedan.3" depart="25.00" departLane="+E_1" departPos="5.10" departSpeed="0.00" departDelay="22.00" arrival="70.00" arrivalLane="-W_1" arrivalPos="100.00" arrivalSpeed="12.27" duration="45.00" routeLength="422.80" waitingTime="0.00" waitingCount="0" stopTime="0.00" timeLoss="12.93" rerouteNo="1" devices="tripinfo_E-W-sedan.3 routing_E-W-sedan.3" vType="sedan" speedFactor="0.96" vaporized=""/>
    <tripinfo id="W-E-sedan.4" depart="28.00" departLane="+W_1" departPos="5.10" departSpeed="0.00" departDelay="24.00" arrival="71.00" arrivalLane="-E_1" arrivalPos="100.00" arrivalSpeed="13.40" duration="43.00" routeLength="422.80" waitingTime="0.00" waitingCount="0" stopTime="0.00" timeLoss="13.11" rerouteNo="1" devices="tripinfo_W-E-sedan.4 routing_W-E-sedan.4" vType="sedan" speedFactor="1.02" vaporized=""/>
    <tripinfo id="E-S-sedan.2" depart="17.00" departLane="+E_1" departPos="5.10" departSpeed="0.00" departDelay="15.00" arrival="72.00" arrivalLane="-S_1" arrivalPos="100.00" arrivalSpeed="15.20" duration="55.00" routeLength="467.42" waitingTime="8.00" waitingCount="1" stopTime="0.00" timeLoss="24.55" rerouteNo="1" devices="tripinfo_E-S-sedan.2 routing_E-S-sedan.2" vType="sedan" speedFactor="1.13" vaporized=""/>
    <tripinfo id="E-N-sedan.5" depart="36.00" departLane="+E_1" departPos="5.10" departSpeed="0.00" departDelay="31.00" arrival="72.00" arrivalLane="-N_1" arrivalPos="100.00" arrivalSpeed="13.24" duration="36.00" routeLength="378.18" waitingTime="0.00" waitingCount="0" stopTime="0.00" timeLoss="7.86" rerouteNo="1" devices="tripinfo_E-N-sedan.5 routing_E-N-sedan.5" vType="sedan" speedFactor="0.99" vaporized=""/>
    <tripinfo id="W-N-sedan.1" depart="7.00" departLane="+W_1" departPos="5.10" departSpeed="0.00" departDelay="6.00" arrival="74.00" arrivalLane="-N_1" arrivalPos="100.00" arrivalSpeed="12.83" duration="67.00" routeLength="467.42" waitingTime="16.00" waitingCount="2" stopTime="0.00" timeLoss="32.99" rerouteNo="1" devices="tripinfo_W-N-sedan.1 routing_W-N-sedan.1" vType="sedan" speedFactor="1.01" vaporized=""/>
    <tripinfo id="S-E-sedan.4" depart="27.00" departLane="+S_1" departPos="5.10" departSpeed="0.00" departDelay="23.00" arrival="74.00" arrivalLane="-E_1" arrivalPos="100.00" arrivalSpeed="13.38" duration="47.00" routeLength="378.18" waitingTime="0.00" waitingCount="0" stopTime="0.00" timeLoss="19.46" rerouteNo="1" devices="tripinfo_S-E-sedan.4 routing_S-E-sedan.4" vType="sedan" speedFactor="1.00" vaporized=""/>
    <tripinfo id="W-N-sedan.2" depart="13.00" departLane="+W_1" departPos="5.10" departSpeed="0.00" departDelay="11.00" arrival="75.00" arrivalLane="-N_1" arrivalPos="100.00" arrivalSpeed="14.88" duration="62.00" routeLength="467.42" waitingTime="9.00" waitingCount="1" stopTime="0.00" timeLoss="33.14" rerouteNo="1" devices="tripinfo_W-N-sedan.2 routing_W-N-sedan.2" vType="sedan" speedFactor="1.17" vaporized=""/>
    <tripinfo id="E-W-sedan.2" depart="18.00" departLane="+E_1" departPos="5.10" departSpeed="0.00" departDelay="16.00" arrival="76.00" arrivalLane="-W_1" arrivalPos="100.00" arrivalSpeed="11.84" duration="58.00" routeLength="422.80" waitingTime="7.00" waitingCount="1" stopTime="0.00" timeLoss="25.21" rerouteNo="1" devices="tripinfo_E-W-sedan.2 routing_E-W-sedan.2" vType="sedan" speedFactor="0.93" vaporized=""/>
    <tripinfo id="S-N-sedan.4" depart="24.00" departLane="+S_1" departPos="5.10" departSpeed="0.00" departDelay="20.00" arrival="77.00" arrivalLane="-N_1" arrivalPos="100.00" arrivalSpeed="13.16" duration="53.00" routeLength="422.80" waitingTime="1.00" waitingCount="1" stopTime="0.00" timeLoss="22.43" rerouteNo="1" devices="tripinfo_S-N-sedan.4 routing_S-N-sedan.4" vType="sedan" speedFactor="1.00" vaporized=""/>
    <tripinfo id="E-W-sedan.4" depart="32.00" departLane="+E_1" departPos="5.10" departSpeed="0.00" departDelay="28.00" arrival="78.00" arrivalLane="-W_1" arrivalPos="100.00" arrivalSpeed="14.71" duration="46.00" routeLength="422.80" waitingTime="0.00" waitingCount="0" stopTime="0.00" timeLoss="17.64" rerouteNo="1" devices="tripinfo_E-W-sedan.4 routing_E-W-sedan.4" vType="sedan" speedFactor="1.10" vaporized=""/>
    <tripinfo id="W-E-sedan.5" depart="35.00" departLane="+W_1" departPos="5.10" departSpeed="0.00" departDelay="30.00" arrival="78.00" arrivalLane="-E_1" arrivalPos="100.00" arrivalSpeed="13.48" duration="43.00" routeLength="422.80" waitingTime="1.00" waitingCount="1" stopTime="0.00" timeLoss="13.20" rerouteNo="1" devices="tripinfo_W-E-sedan.5 routing_W-E-sedan.5" vType="sedan" speedFactor="1.02" vaporized=""/>
    <tripinfo id="S-N-sedan.3" depart="17.00" departLane="+S_1" departPos="5.10" departSpeed="0.00" departDelay="14.00" arrival="79.00" arrivalLane="-N_1" arrivalPos="100.00" arrivalSpeed="15.07" duration="62.00" routeLength="422.80" waitingTime="13.00" waitingCount="2" stopTime="0.00" timeLoss="33.45" rerouteNo="1" devices="tripinfo_S-N-sedan.3 routing_S-N-sedan.3" vType="sedan" speedFactor="1.09" vaporized=""/>
    <tripinfo id="N-S-sedan.4" depart="30.00" departLane="+N_1" departPos="5.10" departSpeed="0.00" departDelay="26.00" arrival="80.00" arrivalLane="-S_1" arrivalPos="100.00" arrivalSpeed="11.78" duration="50.00" routeLength="422.80" waitingTime="0.00" waitingCount="0" stopTime="0.00" timeLoss="13.61" rerouteNo="1" devices="tripinfo_N-S-sedan.4 routing_N-S-sedan.4" vType="sedan" speedFactor="0.85" vaporized=""/>
    <tripinfo id="N-W-sedan.4" depart="34.00" departLane="+N_1" departPos="5.10" departSpeed="0.00" departDelay="30.00" arrival="81.00" arrivalLane="-W_1" arrivalPos="100.00" arrivalSpeed="11.48" duration="47.00" routeLength="378.18" waitingTime="1.00" waitingCount="1" stopTime="0.00" timeLoss="15.03" rerouteNo="1" devices="tripinfo_N-W-sedan.4 routing_N-W-sedan.4" vType="sedan" speedFactor="0.85" vaporized=""/>
    <tripinfo id="S-N-sedan.5" depart="31.00" departLane="+S_1" departPos="5.10" departSpeed="0.00" departDelay="26.00" arrival="82.00" arrivalLane="-N_1" arrivalPos="100.00" arrivalSpeed="11.50" duration="51.00" routeLength="422.80" waitingTime="0.00" waitingCount="0" stopTime="0.00" timeLoss="16.93" rerouteNo="1" devices="tripinfo_S-N-sedan.5 routing_S-N-sedan.5" vType="sedan" speedFactor="0.91" vaporized=""/>
    <tripinfo id="W-S-sedan.5" depart="38.00" departLane="+W_1" departPos="5.10" departSpeed="0.00" departDelay="33.00" arrival="82.00" arrivalLane="-S_1" arrivalPos="100.00" arrivalSpeed="12.30" duration="44.00" routeLength="378.18" waitingTime="1.00" waitingCount="1" stopTime="0.00" timeLoss="15.30" rerouteNo="1" devices="tripinfo_W-S-sedan.5 routing_W-S-sedan.5" vType="sedan" speedFactor="0.97" vaporized=""/>
    <tripinfo id="S-W-sedan.2" depart="16.00" departLane="+S_1" departPos="5.10" departSpeed="0.00" departDelay="14.00" arrival="83.00" arrivalLane="-W_1" arrivalPos="100.00" arrivalSpeed="13.21" duration="67.00" routeLength="467.42" waitingTime="17.00" waitingCount="2" stopTime="0.00" timeLoss="33.26" rerouteNo="1" devices="tripinfo_S-W-sedan.2 routing_S-W-sedan.2" vType="sedan" speedFactor="1.01" vaporized=""/>
    <tripinfo id="S-E-sedan.5" depart="35.00" departLane="+S_1" departPos="5.10" departSpeed="0.00" departDelay="30.00" arrival="83.00" arrivalLane="-E_1" arrivalPos="100.00" arrivalSpeed="11.41" duration="48.00" routeLength="378.18" waitingTime="0.00" waitingCount="0" stopTime="0.00" timeLoss="18.14" rerouteNo="1" devices="tripinfo_S-E-sedan.5 routing_S-E-sedan.5" vType="sedan" speedFactor="0.91" vaporized=""/>
    <tripinfo id="N-S-sedan.2" depart="15.00" departLane="+N_1" departPos="5.10" departSpeed="0.00" departDelay="13.00" arrival="84.00" arrivalLane="-S_1" arrivalPos="100.00" arrivalSpeed="11.35" duration="69.00" routeLength="422.80" waitingTime="18.00" waitingCount="2" stopTime="0.00" timeLoss="33.96" rerouteNo="1" devices="tripinfo_N-S-sedan.2 routing_N-S-sedan.2" vType="sedan" speedFactor="0.87" vaporized=""/>
    <tripinfo id="E-N-sedan.6" depart="43.00" departLane="+E_1" departPos="5.10" departSpeed="0.00" departDelay="37.00" arrival="84.00" arrivalLane="-N_1" arrivalPos="100.00" arrivalSpeed="12.95" duration="41.00" routeLength="378.18" waitingTime="0.00" waitingCount="0" stopTime="0.00" timeLoss="12.52" rerouteNo="1" devices="tripinfo_E-N-sedan.6 routing_E-N-sedan.6" vType="sedan" speedFactor="0.98" vaporized=""/>
    <tripinfo id="N-W-sedan.5" depart="41.00" departLane="+N_1" departPos="5.10" departSpeed="0.00" departDelay="36.00" arrival="85.00" arrivalLane="-W_1" arrivalPos="100.00" arrivalSpeed="13.29" duration="44.00" routeLength="378.18" waitingTime="0.00" waitingCount="0" stopTime="0.00" timeLoss="16.79" rerouteNo="1" devices="tripinfo_N-W-sedan.5 routing_N-W-sedan.5" vType="sedan" speedFactor="1.02" vaporized=""/>
    <tripinfo id="E-N-sedan.7" depart="50.00" departLane="+E_1" departPos="5.10" departSpeed="0.00" departDelay="43.00" arrival="85.00" arrivalLane="-N_1" arrivalPos="100.00" arrivalSpeed="13.25" duration="35.00" routeLength="378.18" waitingTime="0.00" waitingCount="0" stopTime="0.00" timeLoss="8.78" rerouteNo="1" devices="tripinfo_E-N-sedan.7 routing_E-N-sedan.7" vType="sedan" speedFactor="1.04" vaporized=""/>
    <tripinfo id="W-S-sedan.6" depart="44.00" departLane="+W_1" departPos="5.10" departSpeed="0.00" departDelay="38.00" arrival="86.00" arrivalLane="-S_1" arrivalPos="100.00" arrivalSpeed="12.34" duration="42.00" routeLength="378.18" waitingTime="0.00" waitingCount="0" stopTime="0.00" timeLoss="13.43" rerouteNo="1" devices="tripinfo_W-S-sedan.6 routing_W-S-sedan.6" vType="sedan" speedFactor="0.97" vaporized=""/>
    <tripinfo id="N-E-sedan.2" depart="14.00" departLane="+N_1" departPos="5.10" departSpeed="0.00" departDelay="12.00" arrival="87.00" arrivalLane="-E_1" arrivalPos="100.00" arrivalSpeed="11.09" duration="73.00" routeLength="467.42" waitingTime="18.00" waitingCount="2" stopTime="0.00" timeLoss="31.35" rerouteNo="1" devices="tripinfo_N-E-sedan.2 routing_N-E-sedan.2" vType="sedan" speedFactor="0.83" vaporized=""/>
    <tripinfo id="N-W-sedan.6" depart="48.00" departLane="+N_1" departPos="5.10" departSpeed="0.00" departDelay="42.00" arrival="87.00" arrivalLane="-W_1" arrivalPos="100.00" arrivalSpeed="12.08" duration="39.00" routeLength="378.18" waitingTime="0.00" waitingCount="0" stopTime="0.00" timeLoss="10.15" rerouteNo="1" devices="tripinfo_N-W-sedan.6 routing_N-W-sedan.6" vType="sedan" speedFactor="0.96" vaporized=""/>
    <tripinfo id="N-S-sedan.5" depart="38.00" departLane="+N_1" departPos="5.10" departSpeed="0.00" departDelay="33.00" arrival="88.00" arrivalLane="-S_1" arrivalPos="100.00" arrivalSpeed="14.79" duration="50.00" routeLength="422.80" waitingTime="0.00" waitingCount="0" stopTime="0.00" timeLoss="21.92" rerouteNo="1" devices="tripinfo_N-S-sedan.5 routing_N-S-sedan.5" vType="sedan" speedFactor="1.12" vaporized=""/>
    <tripinfo id="S-E-sedan.6" depart="42.00" departLane="+S_1" departPos="5.10" departSpeed="0.00" departDelay="36.00" arrival="88.00" arrivalLane="-E_1" arrivalPos="100.00" arrivalSpeed="13.54" duration="46.00" routeLength="378.18" waitingTime="0.00" waitingCount="0" stopTime="0.00" timeLoss="20.74" rerouteNo="1" devices="tripinfo_S-E-sedan.6 routing_S-E-sedan.6" vType="sedan" speedFactor="1.09" vaporized=""/>
    <tripinfo id="E-N-sedan.8" depart="56.00" departLane="+E_1" departPos="5.10" departSpeed="0.00" departDelay="48.00" arrival="88.00" arrivalLane="-N_1" arrivalPos="100.00" arrivalSpeed="13.94" duration="32.00" routeLength="378.18" waitingTime="0.00" waitingCount="0" stopTime="0.00" timeLoss="6.69" rerouteNo="1" devices="tripinfo_E-N-sedan.8 routing_E-N-sedan.8" vType="sedan" speedFactor="1.10" vaporized=""/>
    <tripinfo id="E-W-sedan.5" depart="40.00" departLane="+E_1" departPos="5.10" departSpeed="0.00" departDelay="35.00" arrival="90.00" arrivalLane="-W_1" arrivalPos="100.00" arrivalSpeed="11.45" duration="50.00" routeLength="422.80" waitingTime="1.00" waitingCount="1" stopTime="0.00" timeLoss="15.34" rerouteNo="1" devices="tripinfo_E-W-sedan.5 routing_E-W-sedan.5" vType="sedan" speedFactor="0.88" vaporized=""/>
    <tripinfo id="W-S-sedan.7" depart="51.00" departLane="+W_1" departPos="5.10" departSpeed="0.00" departDelay="44.00" arrival="90.00" arrivalLane="-S_1" arrivalPos="100.00" arrivalSpeed="13.50" duration="39.00" routeLength="378.18" waitingTime="0.00" waitingCount="0" stopTime="0.00" timeLoss="12.59" rerouteNo="1" devices="tripinfo_W-S-sedan.7 routing_W-S-sedan.7" vType="sedan" speedFactor="1.06" vaporized=""/>
    <tripinfo id="N-E-sedan.3" depart="22.00" departLane="+N_1" departPos="5.10" departSpeed="0.00" departDelay="19.00" arrival="91.00" arrivalLane="-E_1" arrivalPos="100.00" arrivalSpeed="13.02" duration="69.00" routeLength="467.42" waitingTime="14.00" waitingCount="2" stopTime="0.00" timeLoss="33.63" rerouteNo="1" devices="tripinfo_N-E-sedan.3 routing_N-E-sedan.3" vType="sedan" speedFactor="0.97" vaporized=""/>