<?xml version="1.0" encoding="UTF-8"?>

<!-- generated on 2023-04-18 12:19:39 by Eclipse SUMO GUI Version 1.15.0
<configuration xmlns:xsi="http://www.w3.org/2001/XMLSchema-instance" xsi:noNamespaceSchemaLocation="http://sumo.dlr.de/xsd/sumoConfiguration.xsd">

    <input>
        <net-file value="Z:\Users\708891\Desktop\APResearch\Simulations\fourWay.net.xml"/>
        <route-files value="Z:\Users\708891\Desktop\APResearch\Simulations\unifiedDistribution.rou.xml"/>
    </input>

    <output>
        <tripinfo-output value="Z:\Users\708891\Desktop\APResearch\Simulations\output\fourWay\fourWayTripinfo3.xml"/>
        <collision-output value="Z:\Users\708891\Desktop\APResearch\Simulations\output\fourWay\fourWayCollision3.xml"/>
        <statistic-output value="Z:\Users\708891\Desktop\APResearch\Simulations\output\fourWay\fourWayNetworkStats3.xml"/>
    </output>

</configuration>
-->

<tripinfos xmlns:xsi="http://www.w3.org/2001/XMLSchema-instance" xsi:noNamespaceSchemaLocation="http://sumo.dlr.de/xsd/tripinfo_file.xsd">
    <tripinfo id="E-N-sedan.0" depart="0.00" departLane="+E_1" departPos="5.10" departSpeed="0.00" departDelay="0.00" arrival="32.00" arrivalLane="-N_1" arrivalPos="100.00" arrivalSpeed="14.73" duration="32.00" routeLength="394.90" waitingTime="0.00" waitingCount="0" stopTime="0.00" timeLoss="5.47" rerouteNo="1" devices="tripinfo_E-N-sedan.0 routing_E-N-sedan.0" vType="sedan" speedFactor="1.08" vaporized=""/>
    <tripinfo id="S-N-sedan.0" depart="0.00" departLane="+S_1" departPos="5.10" departSpeed="0.00" departDelay="0.00" arrival="32.00" arrivalLane="-N_2" arrivalPos="100.00" arrivalSpeed="13.55" duration="32.00" routeLength="394.90" waitingTime="0.00" waitingCount="0" stopTime="0.00" timeLoss="3.92" rerouteNo="1" devices="tripinfo_S-N-sedan.0 routing_S-N-sedan.0" vType="sedan" speedFactor="1.05" vaporized=""/>
    <tripinfo id="N-E-sedan.0" depart="0.00" departLane="+N_1" departPos="5.10" departSpeed="0.00" departDelay="0.00" arrival="33.00" arrivalLane="-E_2" arrivalPos="100.00" arrivalSpeed="14.05" duration="33.00" routeLength="394.90" waitingTime="0.00" waitingCount="0" stopTime="0.00" timeLoss="5.27" rerouteNo="1" devices="tripinfo_N-E-sedan.0 routing_N-E-sedan.0" vType="sedan" speedFactor="1.06" vaporized=""/>
    <tripinfo id="N-S-sedan.0" depart="3.00" departLane="+N_1" departPos="5.10" departSpeed="0.00" departDelay="3.00" arrival="39.00" arrivalLane="-S_2" arrivalPos="100.00" arrivalSpeed="12.66" duration="36.00" routeLength="394.90" waitingTime="0.00" waitingCount="0" stopTime="0.00" timeLoss="4.98" rerouteNo="1" devices="tripinfo_N-S-sedan.0 routing_N-S-sedan.0" vType="sedan" speedFactor="0.94" vaporized=""/>
    <tripinfo id="S-E-sedan.0" depart="3.00" departLane="+S_1" departPos="5.10" departSpeed="0.00" departDelay="3.00" arrival="39.00" arrivalLane="-E_1" arrivalPos="100.00" arrivalSpeed="12.00" duration="36.00" routeLength="394.90" waitingTime="0.00" waitingCount="0" stopTime="0.00" timeLoss="3.66" rerouteNo="1" devices="tripinfo_S-E-sedan.0 routing_S-E-sedan.0" vType="sedan" speedFactor="0.89" vaporized=""/>
    <tripinfo id="N-W-sedan.0" depart="6.00" departLane="+N_1" departPos="5.10" departSpeed="0.00" departDelay="6.00" arrival="40.00" arrivalLane="-W_1" arrivalPos="100.00" arrivalSpeed="13.69" duration="34.00" routeLength="394.90" waitingTime="0.00" waitingCount="0" stopTime="0.00" timeLoss="5.04" rerouteNo="1" devices="tripinfo_N-W-sedan.0 routing_N-W-sedan.0" vType="sedan" speedFactor="1.01" vaporized=""/>
    <tripinfo id="W-S-sedan.0" depart="6.00" departLane="+W_1" departPos="5.10" departSpeed="0.00" departDelay="6.00" arrival="41.00" arrivalLane="-S_1" arrivalPos="100.00" arrivalSpeed="13.17" duration="35.00" routeLength="394.90" waitingTime="0.00" waitingCount="0" stopTime="0.00" timeLoss="6.42" rerouteNo="1" devices="tripinfo_W-S-sedan.0 routing_W-S-sedan.0" vType="sedan" speedFactor="1.03" vaporized=""/>
    <tripinfo id="S-E-sedan.1" depart="12.00" departLane="+S_1" departPos="5.10" departSpeed="0.00" departDelay="11.00" arrival="41.00" arrivalLane="-E_1" arrivalPos="100.00" arrivalSpeed="15.87" duration="29.00" routeLength="394.90" waitingTime="0.00" waitingCount="0" stopTime="0.00" timeLoss="3.98" rerouteNo="1" devices="tripinfo_S-E-sedan.1 routing_S-E-sedan.1" vType="sedan" speedFactor="1.16" vaporized=""/>
    <tripinfo id="S-W-sedan.0" depart="6.00" departLane="+S_1" departPos="5.10" departSpeed="0.00" departDelay="6.00" arrival="42.00" arrivalLane="-W_2" arrivalPos="100.00" arrivalSpeed="12.55" duration="36.00" routeLength="394.90" waitingTime="0.00" waitingCount="0" stopTime="0.00" timeLoss="5.58" rerouteNo="1" devices="tripinfo_S-W-sedan.0 routing_S-W-sedan.0" vType="sedan" speedFactor="0.94" vaporized=""/>
    <tripinfo id="S-N-sedan.1" depart="9.00" departLane="+S_1" departPos="5.10" departSpeed="0.00" departDelay="8.00" arrival="44.00" arrivalLane="-N_2" arrivalPos="100.00" arrivalSpeed="12.68" duration="35.00" routeLength="394.90" waitingTime="0.00" waitingCount="0" stopTime="0.00" timeLoss="4.01" rerouteNo="1" devices="tripinfo_S-N-sedan.1 routing_S-N-sedan.1" vType="sedan" speedFactor="0.94" vaporized=""/>
    <tripinfo id="N-E-sedan.1" depart="9.00" departLane="+N_1" departPos="5.10" departSpeed="0.00" departDelay="8.00" arrival="45.00" arrivalLane="-E_2" arrivalPos="100.00" arrivalSpeed="13.27" duration="36.00" routeLength="394.90" waitingTime="0.00" waitingCount="0" stopTime="0.00" timeLoss="8.40" rerouteNo="1" devices="tripinfo_N-E-sedan.1 routing_N-E-sedan.1" vType="sedan" speedFactor="1.05" vaporized=""/>
    <tripinfo id="N-S-sedan.1" depart="12.00" departLane="+N_1" departPos="5.10" departSpeed="0.00" departDelay="11.00" arrival="45.00" arrivalLane="-S_2" arrivalPos="100.00" arrivalSpeed="15.27" duration="33.00" routeLength="394.90" waitingTime="0.00" waitingCount="0" stopTime="0.00" timeLoss="7.63" rerouteNo="1" devices="tripinfo_N-S-sedan.1 routing_N-S-sedan.1" vType="sedan" speedFactor="1.12" vaporized=""/>
    <tripinfo id="E-N-sedan.1" depart="9.00" departLane="+E_1" departPos="5.10" departSpeed="0.00" departDelay="8.00" arrival="46.00" arrivalLane="-N_1" arrivalPos="100.00" arrivalSpeed="11.74" duration="37.00" routeLength="394.90" waitingTime="0.00" waitingCount="0" stopTime="0.00" timeLoss="5.44" rerouteNo="1" devices="tripinfo_E-N-sedan.1 routing_E-N-sedan.1" vType="sedan" speedFactor="0.93" vaporized=""/>
    <tripinfo id="N-W-sedan.1" depart="15.00" departLane="+N_1" departPos="5.10" departSpeed="0.00" departDelay="14.00" arrival="48.00" arrivalLane="-W_1" arrivalPos="100.00" arrivalSpeed="12.96" duration="33.00" routeLength="394.90" waitingTime="0.00" waitingCount="0" stopTime="0.00" timeLoss="4.16" rerouteNo="1" devices="tripinfo_N-W-sedan.1 routing_N-W-sedan.1" vType="sedan" speedFactor="0.99" vaporized=""/>
    <tripinfo id="S-W-sedan.1" depart="14.00" departLane="+S_1" departPos="5.10" departSpeed="0.00" departDelay="13.00" arrival="49.00" arrivalLane="-W_2" arrivalPos="100.00" arrivalSpeed="13.29" duration="35.00" routeLength="394.90" waitingTime="0.00" waitingCount="0" stopTime="0.00" timeLoss="7.01" rerouteNo="1" devices="tripinfo_S-W-sedan.1 routing_S-W-sedan.1" vType="sedan" speedFactor="1.02" vaporized=""/>
    <tripinfo id="S-N-sedan.2" depart="18.00" departLane="+S_1" departPos="5.10" departSpeed="0.00" departDelay="16.00" arrival="50.00" arrivalLane="-N_2" arrivalPos="100.00" arrivalSpeed="16.32" duration="32.00" routeLength="394.90" waitingTime="0.00" waitingCount="0" stopTime="0.00" timeLoss="7.06" rerouteNo="1" devices="tripinfo_S-N-sedan.2 routing_S-N-sedan.2" vType="sedan" speedFactor="1.18" vaporized=""/>
    <tripinfo id="S-E-sedan.2" depart="21.00" departLane="+S_1" departPos="5.10" departSpeed="0.00" departDelay="19.00" arrival="51.00" arrivalLane="-E_1" arrivalPos="100.00" arrivalSpeed="15.08" duration="30.00" routeLength="394.90" waitingTime="0.00" waitingCount="0" stopTime="0.00" timeLoss="5.03" rerouteNo="1" devices="tripinfo_S-E-sedan.2 routing_S-E-sedan.2" vType="sedan" speedFactor="1.15" vaporized=""/>
    <tripinfo id="W-S-sedan.1" depart="15.00" departLane="+W_1" departPos="5.10" departSpeed="0.00" departDelay="14.00" arrival="52.00" arrivalLane="-S_1" arrivalPos="100.00" arrivalSpeed="11.21" duration="37.00" routeLength="394.90" waitingTime="0.00" waitingCount="0" stopTime="0.00" timeLoss="4.68" rerouteNo="1" devices="tripinfo_W-S-sedan.1 routing_W-S-sedan.1" vType="sedan" speedFactor="0.89" vaporized=""/>
    <tripinfo id="E-N-sedan.2" depart="18.00" departLane="+E_1" departPos="5.10" departSpeed="0.00" departDelay="16.00" arrival="54.00" arrivalLane="-N_1" arrivalPos="100.00" arrivalSpeed="12.64" duration="36.00" routeLength="394.90" waitingTime="0.00" waitingCount="0" stopTime="0.00" timeLoss="5.81" rerouteNo="1" devices="tripinfo_E-N-sedan.2 routing_E-N-sedan.2" vType="sedan" speedFactor="0.95" vaporized=""/>
    <tripinfo id="W-S-sedan.2" depart="24.00" departLane="+W_1" departPos="5.10" departSpeed="0.00" departDelay="22.00" arrival="58.00" arrivalLane="-S_1" arrivalPos="100.00" arrivalSpeed="13.10" duration="34.00" routeLength="394.90" waitingTime="0.00" waitingCount="0" stopTime="0.00" timeLoss="6.13" rerouteNo="1" devices="tripinfo_W-S-sedan.2 routing_W-S-sedan.2" vType="sedan" speedFactor="1.02" vaporized=""/>
    <tripinfo id="N-E-sedan.2" depart="18.00" departLane="+N_1" departPos="5.10" departSpeed="0.00" departDelay="16.00" arrival="59.00" arrivalLane="-E_2" arrivalPos="100.00" arrivalSpeed="10.28" duration="41.00" routeLength="394.90" waitingTime="0.00" waitingCount="0" stopTime="0.00" timeLoss="5.81" rerouteNo="1" devices="tripinfo_N-E-sedan.2 routing_N-E-sedan.2" vType="sedan" speedFactor="0.83" vaporized=""/>
    <tripinfo id="N-S-sedan.2" depart="21.00" departLane="+N_1" departPos="5.10" departSpeed="0.00" departDelay="19.00" arrival="59.00" arrivalLane="-S_2" arrivalPos="100.00" arrivalSpeed="11.23" duration="38.00" routeLength="394.90" waitingTime="0.00" waitingCount="0" stopTime="0.00" timeLoss="5.23" rerouteNo="1" devices="tripinfo_N-S-sedan.2 routing_N-S-sedan.2" vType="sedan" speedFactor="0.87" vaporized=""/>
    <tripinfo id="N-W-sedan.2" depart="24.00" departLane="+N_1" departPos="5.10" departSpeed="0.00" departDelay="22.00" arrival="62.00" arrivalLane="-W_1" arrivalPos="100.00" arrivalSpeed="12.14" duration="38.00" routeLength="394.90" waitingTime="0.00" waitingCount="0" stopTime="0.00" timeLoss="6.60" rerouteNo="1" devices="tripinfo_N-W-sedan.2 routing_N-W-sedan.2" vType="sedan" speedFactor="0.92" vaporized=""/>
    <tripinfo id="E-S-sedan.0" depart="3.00" departLane="+E_1" departPos="5.10" departSpeed="0.00" departDelay="3.00" arrival="63.00" arrivalLane="-S_2" arrivalPos="100.00" arrivalSpeed="13.82" duration="60.00" routeLength="394.90" waitingTime="21.00" waitingCount="1" stopTime="0.00" timeLoss="31.50" rerouteNo="1" devices="tripinfo_E-S-sedan.0 routing_E-S-sedan.0" vType="sedan" speedFactor="1.03" vaporized=""/>
    <tripinfo id="W-E-sedan.0" depart="3.00" departLane="+W_1" departPos="5.10" departSpeed="0.00" departDelay="3.00" arrival="63.00" arrivalLane="-E_2" arrivalPos="100.00" arrivalSpeed="13.98" duration="60.00" routeLength="394.90" waitingTime="21.00" waitingCount="1" stopTime="0.00" timeLoss="33.91" rerouteNo="1" devices="tripinfo_W-E-sedan.0 routing_W-E-sedan.0" vType="sedan" speedFactor="1.09" vaporized=""/>
    <tripinfo id="E-N-sedan.3" depart="27.00" departLane="+E_1" departPos="5.10" departSpeed="0.00" departDelay="24.00" arrival="63.00" arrivalLane="-N_1" arrivalPos="100.00" arrivalSpeed="11.71" duration="36.00" routeLength="394.90" waitingTime="0.00" waitingCount="0" stopTime="0.00" timeLoss="3.89" rerouteNo="1" devices="tripinfo_E-N-sedan.3 routing_E-N-sedan.3" vType="sedan" speedFactor="0.90" vaporized=""/>
    <tripinfo id="W-N-sedan.0" depart="0.00" departLane="+W_1" departPos="5.10" departSpeed="0.00" departDelay="0.00" arrival="65.00" arrivalLane="-N_2" arrivalPos="100.00" arrivalSpeed="11.06" duration="65.00" routeLength="394.90" waitingTime="22.00" waitingCount="1" stopTime="0.00" timeLoss="31.15" rerouteNo="1" devices="tripinfo_W-N-sedan.0 routing_W-N-sedan.0" vType="sedan" speedFactor="0.86" vaporized=""/>
    <tripinfo id="N-W-sedan.3" depart="33.00" departLane="+N_1" departPos="5.10" departSpeed="0.00" departDelay="30.00" arrival="65.00" arrivalLane="-W_1" arrivalPos="100.00" arrivalSpeed="14.03" duration="32.00" routeLength="394.90" waitingTime="0.00" waitingCount="0" stopTime="0.00" timeLoss="6.01" rerouteNo="1" devices="tripinfo_N-W-sedan.3 routing_N-W-sedan.3" vType="sedan" speedFactor="1.10" vaporized=""/>
    <tripinfo id="S-E-sedan.3" depart="30.00" departLane="+S_1" departPos="5.10" departSpeed="0.00" departDelay="27.00" arrival="65.00" arrivalLane="-E_1" arrivalPos="100.00" arrivalSpeed="13.75" duration="35.00" routeLength="394.90" waitingTime="0.00" waitingCount="0" stopTime="0.00" timeLoss="7.17" rerouteNo="1" devices="tripinfo_S-E-sedan.3 routing_S-E-sedan.3" vType="sedan" speedFactor="1.04" vaporized=""/>
    <tripinfo id="E-N-sedan.4" depart="36.00" departLane="+E_1" departPos="5.10" departSpeed="0.00" departDelay="32.00" arrival="66.00" arrivalLane="-N_1" arrivalPos="100.00" arrivalSpeed="16.06" duration="30.00" routeLength="394.90" waitingTime="0.00" waitingCount="0" stopTime="0.00" timeLoss="4.85" rerouteNo="1" devices="tripinfo_E-N-sedan.4 routing_E-N-sedan.4" vType="sedan" speedFactor="1.17" vaporized=""/>
    <tripinfo id="E-W-sedan.0" depart="6.00" departLane="+E_1" departPos="5.10" departSpeed="0.00" departDelay="6.00" arrival="67.00" arrivalLane="-W_2" arrivalPos="100.00" arrivalSpeed="11.10" duration="61.00" routeLength="394.90" waitingTime="17.00" waitingCount="1" stopTime="0.00" timeLoss="26.47" rerouteNo="1" devices="tripinfo_E-W-sedan.0 routing_E-W-sedan.0" vType="sedan" speedFactor="0.83" vaporized=""/>
    <tripinfo id="W-N-sedan.1" depart="9.00" departLane="+W_1" departPos="5.10" departSpeed="0.00" departDelay="8.00" arrival="68.00" arrivalLane="-N_2" arrivalPos="100.00" arrivalSpeed="14.00" duration="59.00" routeLength="394.90" waitingTime="19.00" waitingCount="1" stopTime="0.00" timeLoss="30.69" rerouteNo="1" devices="tripinfo_W-N-sedan.1 routing_W-N-sedan.1" vType="sedan" speedFactor="1.01" vaporized=""/>
    <tripinfo id="W-S-sedan.3" depart="33.00" departLane="+W_1" departPos="5.10" departSpeed="0.00" departDelay="30.00" arrival="70.00" arrivalLane="-S_1" arrivalPos="100.00" arrivalSpeed="11.74" duration="37.00" routeLength="394.90" waitingTime="0.00" waitingCount="0" stopTime="0.00" timeLoss="4.59" rerouteNo="1" devices="tripinfo_W-S-sedan.3 routing_W-S-sedan.3" vType="sedan" speedFactor="0.90" vaporized=""/>
    <tripinfo id="W-E-sedan.1" depart="12.00" departLane="+W_1" departPos="5.10" departSpeed="0.00" departDelay="11.00" arrival="71.00" arrivalLane="-E_2" arrivalPos="100.00" arrivalSpeed="12.30" duration="59.00" routeLength="394.90" waitingTime="16.00" waitingCount="1" stopTime="0.00" timeLoss="29.40" rerouteNo="1" devices="tripinfo_W-E-sedan.1 routing_W-E-sedan.1" vType="sedan" speedFactor="0.97" vaporized=""/>
    <tripinfo id="E-S-sedan.1" depart="12.00" departLane="+E_1" departPos="5.10" departSpeed="0.00" departDelay="11.00" arrival="74.00" arrivalLane="-S_2" arrivalPos="100.00" arrivalSpeed="11.83" duration="62.00" routeLength="394.90" waitingTime="16.00" waitingCount="2" stopTime="0.00" timeLoss="28.81" rerouteNo="1" devices="tripinfo_E-S-sedan.1 routing_E-S-sedan.1" vType="sedan" speedFactor="0.88" vaporized=""/>
    <tripinfo id="E-W-sedan.1" depart="15.00" departLane="+E_1" departPos="5.10" departSpeed="0.00" departDelay="14.00" arrival="75.00" arrivalLane="-W_2" arrivalPos="100.00" arrivalSpeed="12.24" duration="60.00" routeLength="394.90" waitingTime="15.00" waitingCount="2" stopTime="0.00" timeLoss="29.04" rerouteNo="1" devices="tripinfo_E-W-sedan.1 routing_E-W-sedan.1" vType="sedan" speedFactor="0.94" vaporized=""/>
    <tripinfo id="W-N-sedan.2" depart="18.00" departLane="+W_1" departPos="5.10" departSpeed="0.00" departDelay="16.00" arrival="75.00" arrivalLane="-N_2" arrivalPos="100.00" arrivalSpeed="15.01" duration="57.00" routeLength="394.90" waitingTime="14.00" waitingCount="1" stopTime="0.00" timeLoss="31.95" rerouteNo="1" devices="tripinfo_W-N-sedan.2 routing_W-N-sedan.2" vType="sedan" speedFactor="1.17" vaporized=""/>
    <tripinfo id="S-E-sedan.4" depart="39.00" departLane="+S_1" departPos="5.10" departSpeed="0.00" departDelay="35.00" arrival="75.00" arrivalLane="-E_1" arrivalPos="100.00" arrivalSpeed="13.32" duration="36.00" routeLength="394.90" waitingTime="0.00" waitingCount="0" stopTime="0.00" timeLoss="6.56" rerouteNo="1" devices="tripinfo_S-E-sedan.4 routing_S-E-sedan.4" vType="sedan" speedFactor="1.00" vaporized=""/>
    <tripinfo id="W-S-sedan.4" depart="42.00" departLane="+W_1" departPos="5.10" departSpeed="0.00" departDelay="38.00" arrival="76.00" arrivalLane="-S_1" arrivalPos="100.00" arrivalSpeed="12.17" duration="34.00" routeLength="394.90" waitingTime="0.00" waitingCount="0" stopTime="0.00" timeLoss="4.05" rerouteNo="1" devices="tripinfo_W-S-sedan.4 routing_W-S-sedan.4" vType="sedan" speedFactor="0.97" vaporized=""/>
    <tripinfo id="W-E-sedan.2" depart="21.00" departLane="+W_1" departPos="5.10" departSpeed="0.00" departDelay="19.00" arrival="78.00" arrivalLane="-E_2" arrivalPos="100.00" arrivalSpeed="13.10" duration="57.00" routeLength="394.90" waitingTime="11.00" waitingCount="1" stopTime="0.00" timeLoss="27.97" rerouteNo="1" devices="tripinfo_W-E-sedan.2 routing_W-E-sedan.2" vType="sedan" speedFactor="0.99" vaporized=""/>
    <tripinfo id="E-N-sedan.5" depart="45.00" departLane="+E_1" departPos="5.10" departSpeed="0.00" departDelay="40.00" arrival="79.00" arrivalLane="-N_1" arrivalPos="100.00" arrivalSpeed="12.88" duration="34.00" routeLength="394.90" waitingTime="0.00" waitingCount="0" stopTime="0.00" timeLoss="4.63" rerouteNo="1" devices="tripinfo_E-N-sedan.5 routing_E-N-sedan.5" vType="sedan" speedFactor="0.99" vaporized=""/>
    <tripinfo id="E-S-sedan.2" depart="21.00" departLane="+E_1" departPos="5.10" departSpeed="0.00" departDelay="19.00" arrival="80.00" arrivalLane="-S_2" arrivalPos="100.00" arrivalSpeed="15.47" duration="59.00" routeLength="394.90" waitingTime="12.00" waitingCount="2" stopTime="0.00" timeLoss="33.45" rerouteNo="1" devices="tripinfo_E-S-sedan.2 routing_E-S-sedan.2" vType="sedan" speedFactor="1.13" vaporized=""/>
    <tripinfo id="W-N-sedan.3" depart="27.00" departLane="+W_1" departPos="5.10" departSpeed="0.00" departDelay="24.00" arrival="83.00" arrivalLane="-N_2" arrivalPos="100.00" arrivalSpeed="13.87" duration="56.00" routeLength="394.90" waitingTime="5.00" waitingCount="1" stopTime="0.00" timeLoss="29.69" rerouteNo="1" devices="tripinfo_W-N-sedan.3 routing_W-N-sedan.3" vType="sedan" speedFactor="1.09" vaporized=""/>
    <tripinfo id="N-W-sedan.4" depart="42.00" departLane="+N_1" departPos="5.10" departSpeed="0.00" departDelay="38.00" arrival="83.00" arrivalLane="-W_1" arrivalPos="100.00" arrivalSpeed="11.68" duration="41.00" routeLength="394.90" waitingTime="0.00" waitingCount="0" stopTime="0.00" timeLoss="6.83" rerouteNo="1" devices="tripinfo_N-W-sedan.4 routing_N-W-sedan.4" vType="sedan" speedFactor="0.85" vaporized=""/>
    <tripinfo id="E-W-sedan.2" depart="24.00" departLane="+E_1" departPos="5.10" departSpeed="0.00" departDelay="22.00" arrival="84.00" arrivalLane="-W_2" arrivalPos="100.00" arrivalSpeed="12.80" duration="60.00" routeLength="394.90" waitingTime="7.00" waitingCount="1" stopTime="0.00" timeLoss="28.68" rerouteNo="1" devices="tripinfo_E-W-sedan.2 routing_E-W-sedan.2" vType="sedan" speedFactor="0.93" vaporized=""/>
    <tripinfo id="W-S-sedan.5" depart="50.00" departLane="+W_1" departPos="5.10" departSpeed="0.00" departDelay="45.00" arrival="84.00" arrivalLane="-S_1" arrivalPos="100.00" arrivalSpeed="13.01" duration="34.00" routeLength="394.90" waitingTime="0.00" waitingCount="0" stopTime="0.00" timeLoss="4.48" rerouteNo="1" devices="tripinfo_W-S-sedan.5 routing_W-S-sedan.5" vType="sedan" speedFactor="0.97" vaporized=""/>
    <tripinfo id="N-W-sedan.5" depart="51.00" departLane="+N_1" departPos="5.10" departSpeed="0.00" departDelay="46.00" arrival="85.00" arrivalLane="-W_1" arrivalPos="100.00" arrivalSpeed="13.84" duration="34.00" routeLength="394.90" waitingTime="0.00" waitingCount="0" stopTime="0.00" timeLoss="5.89" rerouteNo="1" devices="tripinfo_N-W-sedan.5 routing_N-W-sedan.5" vType="sedan" speedFactor="1.02" vaporized=""/>
    <tripinfo id="W-E-sedan.3" depart="30.00" departLane="+W_1" departPos="5.10" departSpeed="0.00" departDelay="27.00" arrival="86.00" arrivalLane="-E_2" arrivalPos="100.00" arrivalSpeed="13.00" duration="56.00" routeLength="394.90" waitingTime="5.00" waitingCount="1" stopTime="0.00" timeLoss="26.86" rerouteNo="1" devices="tripinfo_W-E-sedan.3 routing_W-E-sedan.3" vType="sedan" speedFactor="1.00" vaporized=""/>
    <tripinfo id="S-E-sedan.5" depart="49.00" departLane="+S_1" departPos="5.10" departSpeed="0.00" departDelay="44.00" arrival="86.00" arrivalLane="-E_1" arrivalPos="100.00" arrivalSpeed="11.53" duration="37.00" routeLength="394.90" waitingTime="0.00" waitingCount="0" stopTime="0.00" timeLoss="5.22" rerouteNo="1" devices="tripinfo_S-E-sedan.5 routing_S-E-sedan.5" vType="sedan" speedFactor="0.91" vaporized=""/>
    <tripinfo id="E-N-sedan.6" depart="54.00" departLane="+E_1" departPos="5.10" departSpeed="0.00" departDelay="48.00" arrival="87.00" arrivalLane="-N_1" arrivalPos="100.00" arrivalSpeed="13.38" duration="33.00" routeLength="394.90" waitingTime="0.00" waitingCount="0" stopTime="0.00" timeLoss="3.46" rerouteNo="1" devices="tripinfo_E-N-sedan.6 routing_E-N-sedan.6" vType="sedan" speedFactor="0.98" vaporized=""/>
    <tripinfo id="E-S-sedan.3" depart="30.00" departLane="+E_1" departPos="5.10" departSpeed="0.00" departDelay="27.00" arrival="88.00" arrivalLane="-S_2" arrivalPos="100.00" arrivalSpeed="13.91" duration="58.00" routeLength="394.90" waitingTime="4.00" waitingCount="1" stopTime="0.00" timeLoss="29.60" rerouteNo="1" devices="tripinfo_E-S-sedan.3 routing_E-S-sedan.3" vType="sedan" speedFactor="1.03" vaporized=""/>
    <tripinfo id="E-W-sedan.3" depart="33.00" departLane="+E_1" departPos="5.10" departSpeed="0.00" departDelay="30.00" arrival="90.00" arrivalLane="-W_2" arrivalPos="100.00" arrivalSpeed="12.03" duration="57.00" routeLength="394.90" waitingTime="0.00" waitingCount="0" stopTime="0.00" timeLoss="27.27" rerouteNo="1" devices="tripinfo_E-W-sedan.3 routing_E-W-sedan.3" vType="sedan" speedFactor="0.96" vaporized=""/>
    <tripinfo id="W-N-sedan.4" depart="36.00" departLane="+W_1" departPos="5.10" departSpeed="0.00" departDelay="32.00" arrival="92.00" arrivalLane="-N_2" arrivalPos="100.00" arrivalSpeed="15.05" duration="56.00" routeLength="394.90" waitingTime="1.00" waitingCount="1" stopTime="0.00" timeLoss="30.19" rerouteNo="1" devices="tripinfo_W-N-sedan.4 routing_W-N-sedan.4" vType="sedan" speedFactor="1.14" vaporized=""/>
    <tripinfo id="S-E-sedan.6" depart="58.00" departLane="+S_1" departPos="5.10" departSpeed="0.00" departDelay="52.00" arrival="92.00" arrivalLane="-E_1" arrivalPos="100.00" arrivalSpeed="14.86" duration="34.00" routeLength="394.90" waitingTime="0.00" waitingCount="0" stopTime="0.00" timeLoss="6.96" rerouteNo="1" devices="tripinfo_S-E-sedan.6 routing_S-E-sedan.6" vType="sedan" speedFactor="1.09" vaporized=""/>
    <tripinfo id="W-S-sedan.6" depart="59.00" departLane="+W_1" departPos="5.10" departSpeed="0.00" departDelay="53.00" arrival="94.00" arrivalLane="-S_1" arrivalPos="100.00" arrivalSpeed="13.10" duration="35.00" routeLength="394.90" waitingTime="0.00" waitingCount="0" stopTime="0.00" timeLoss="4.86" rerouteNo="1" devices="tripinfo_W-S-sedan.6 routing_W-S-sedan.6" vType="sedan" speedFactor="0.97" vaporized=""/>
    <tripinfo id="E-N-sedan.7" depart="62.00" departLane="+E_1" departPos="5.10" departSpeed="0.00" departDelay="55.00" arrival="94.00" arrivalLane="-N_1" arrivalPos="100.00" arrivalSpeed="13.70" duration="32.00" routeLength="394.90" waitingTime="0.00" waitingCount="0" stopTime="0.00" timeLoss="4.06" rerouteNo="1" devices="tripinfo_E-N-sedan.7 routing_E-N-sedan.7" vType="sedan" speedFactor="1.04" vaporized=""/>
    <tripinfo id="W-E-sedan.4" depart="39.00" departLane="+W_1" departPos="5.10" departSpeed="0.00" departDelay="35.00" arrival="95.00" arrivalLane="-E_2" arrivalPos="100.00" arrivalSpeed="13.30" duration="56.00" routeLength="394.90" waitingTime="0.00" waitingCount="0" stopTime="0.00" timeLoss="27.49" rerouteNo="1" devices="tripinfo_W-E-sedan.4 routing_W-E-sedan.4" vType="sedan" speedFactor="1.02" vaporized=""/>
    <tripinfo id="N-W-sedan.6" depart="60.00" departLane="+N_1" departPos="5.10" departSpeed="0.00" departDelay="54.00" arrival="96.00" arrivalLane="-W_1" arrivalPos="100.00" arrivalSpeed="12.65" duration="36.00" routeLength="394.90" waitingTime="0.00" waitingCount="0" stopTime="0.00" timeLoss="6.12" rerouteNo="1" devices="tripinfo_N-W-sedan.6 routing_N-W-sedan.6" vType="sedan" speedFactor="0.96" vaporized=""/>
    <tripinfo id="E-S-sedan.4" depart="39.00" departLane="+E_1" departPos="5.10" departSpeed="0.00" departDelay="35.00" arrival="97.00" arrivalLane="-S_2" arrivalPos="100.00" arrivalSpeed="14.05" duration="58.00" routeLength="394.90" waitingTime="2.00" waitingCount="1" stopTime="0.00" timeLoss="29.50" rerouteNo="1" devices="tripinfo_E-S-sedan.4 routing_E-S-sedan.4" vType="sedan" speedFactor="1.02" vaporized=""/>
    <tripinfo id="E-W-sedan.4" depart="42.00" departLane="+E_1" departPos="5.10" departSpeed="0.00" departDelay="38.00" arrival="98.00" arrivalLane="-W_2" arrivalPos="100.00" arrivalSpeed="15.04" duration="56.00" routeLength="394.90" waitingTime="1.00" waitingCount="1" stopTime="0.00" timeLoss="29.39" rerouteNo="1" devices="tripinfo_E-W-sedan.4 routing_E-W-sedan.4" vType="sedan" speedFactor="1.10" vaporized=""/>
    <tripinfo id="W-S-sedan.7" depart="68.00" departLane="+W_1" departPos="5.10" departSpeed="0.00" departDelay="61.00" arrival="99.00" arrivalLane="-S_1" arrivalPos="100.00" arrivalSpeed="13.44" duration="31.00" routeLength="394.90" waitingTime="0.00" waitingCount="0" stopTime="0.00" timeLoss="3.95" rerouteNo="1" devices="tripinfo_W-S-sedan.7 routing_W-S-sedan.7" vType="sedan" speedFactor="1.06" vaporized=""/>
    <tripinfo id="W-N-sedan.5" depart="45.00" departLane="+W_1" departPos="5.10" departSpeed="0.00" departDelay="40.00" arrival="101.00" arrivalLane="-N_2" arrivalPos="100.00" arrivalSpeed="13.61" duration="56.00" routeLength="394.90" waitingTime="0.00" waitingCount="0" stopTime="0.00" timeLoss="27.46" rerouteNo="1" devices="tripinfo_W-N-sedan.5 routing_W-N-sedan.5" vType="sedan" speedFactor="1.02" vaporized=""/>
    <tripinfo id="E-N-sedan.8" depart="71.00" departLane="+E_1" departPos="5.10" departSpeed="0.00" departDelay="63.00" arrival="103.00" arrivalLane="-N_1" arrivalPos="100.00" arrivalSpeed="13.96" duration="32.00" routeLength="394.90" waitingTime="0.00" waitingCount="0" stopTime="0.00" timeLoss="5.77" rerouteNo="1" devices="tripinfo_E-N-sedan.8 routing_E-N-sedan.8" vType="sedan" speedFactor="1.10" vaporized=""/>
    <tripinfo id="N-W-sedan.7" depart="69.00" departLane="+N_1" departPos="5.10" departSpeed="0.00" departDelay="62.00" arrival="104.00" arrivalLane="-W_1" arrivalPos="100.00" arrivalSpeed="13.72" duration="35.00" routeLength="394.90" waitingTime="0.00" waitingCount="0" stopTime="0.00" timeLoss="5.97" rerouteNo="1" devices="tripinfo_N-W-sedan.7 routing_N-W-sedan.7" vType="sedan" speedFactor="1.00" vaporized=""/>
    <tripinfo id="S-E-sedan.7" depart="67.00" departLane="+S_1" departPos="5.10" departSpeed="0.00" departDelay="60.00" arrival="104.00" arrivalLane="-E_1" arrivalPos="100.00" arrivalSpeed="12.33" duration="37.00" routeLength="394.90" waitingTime="0.00" waitingCount="0" stopTime="0.00" timeLoss="4.83" rerouteNo="1" devices="tripinfo_S-E-sedan.7 routing_S-E-sedan.7" vType="sedan" speedFactor="0.89" vaporized=""/>
    <tripinfo id="S-W-sedan.2" depart="24.00" departLane="+S_1" departPos="5.10" departSpeed="0.00" departDelay="22.00" arrival="107.00" arrivalLane="-W_2" arrivalPos="100.00" arrivalSpeed="13.49" duration="83.00" routeLength="394.90" waitingTime="45.00" waitingCount="1" stopTime="0.00" timeLoss="54.44" rerouteNo="1" devices="tripinfo_S-W-sedan.2 routing_S-W-sedan.2" vType="sedan" speedFactor="1.01" vaporized=""/>
    <tripinfo id="N-E-sedan.3" depart="27.00" departLane="+N_1" departPos="5.10" departSpeed="0.00" departDelay="24.00" arrival="107.00" arrivalLane="-E_2" arrivalPos="100.00" arrivalSpeed="12.48" duration="80.00" routeLength="394.90" waitingTime="41.00" waitingCount="1" stopTime="0.00" timeLoss="50.58" rerouteNo="1" devices="tripinfo_N-E-sedan.3 routing_N-E-sedan.3" vType="sedan" speedFactor="0.97" vaporized=""/>
    <tripinfo id="N-S-sedan.3" depart="30.00" departLane="+N_1" departPos="5.10" departSpeed="0.00" departDelay="27.00" arrival="107.00" arrivalLane="-S_2" arrivalPos="100.00" arrivalSpeed="15.43" duration="77.00" routeLength="394.90" waitingTime="40.00" waitingCount="1" stopTime="0.00" timeLoss="52.65" rerouteNo="1" devices="tripinfo_N-S-sedan.3 routing_N-S-sedan.3" vType="sedan" speedFactor="1.18" vaporized=""/>
    <tripinfo id="S-N-sedan.3" depart="27.00" departLane="+S_1" departPos="5.10" departSpeed="0.00" departDelay="24.00" arrival="108.00" arrivalLane="-N_2" arrivalPos="100.00" arrivalSpeed="14.74" duration="81.00" routeLength="394.90" waitingTime="44.00" waitingCount="1" stopTime="0.00" timeLoss="54.76" rerouteNo="1" devices="tripinfo_S-N-sedan.3 routing_S-N-sedan.3" vType="sedan" speedFactor="1.09" vaporized=""/>