<?xml version="1.0" encoding="UTF-8"?>

<!-- generated on 2023-04-18 12:14:54 by Eclipse SUMO GUI Version 1.15.0
<configuration xmlns:xsi="http://www.w3.org/2001/XMLSchema-instance" xsi:noNamespaceSchemaLocation="http://sumo.dlr.de/xsd/sumoConfiguration.xsd">

    <input>
        <net-file value="Simulations\B2.net.xml"/>
        <route-files value="Simulations\unifiedDistribution.rou.xml"/>
    </input>

    <output>
        <tripinfo-output value="Simulations\output\B2\B2Tripinfo1.xml"/>
        <collision-output value="Simulations\output\B2\B2Collision1.xml"/>
        <statistic-output value="Simulations\output\B2\B2NetworkStats1.xml"/>
    </output>

</configuration>
-->

<tripinfos xmlns:xsi="http://www.w3.org/2001/XMLSchema-instance" xsi:noNamespaceSchemaLocation="http://sumo.dlr.de/xsd/tripinfo_file.xsd">
    <tripinfo id="E-N-sedan.0" depart="0.00" departLane="+E_1" departPos="5.10" departSpeed="0.00" departDelay="0.00" arrival="28.00" arrivalLane="-N_1" arrivalPos="120.08" arrivalSpeed="14.33" duration="28.00" routeLength="350.37" waitingTime="0.00" waitingCount="0" stopTime="0.00" timeLoss="4.24" rerouteNo="1" devices="tripinfo_E-N-sedan.0 routing_E-N-sedan.0" vType="sedan" speedFactor="1.08" vaporized=""/>
    <tripinfo id="S-N-sedan.0" depart="0.00" departLane="+S_1" departPos="5.10" departSpeed="0.00" departDelay="0.00" arrival="34.00" arrivalLane="-N_2" arrivalPos="120.08" arrivalSpeed="14.17" duration="34.00" routeLength="425.83" waitingTime="0.00" waitingCount="0" stopTime="0.00" timeLoss="3.80" rerouteNo="1" devices="tripinfo_S-N-sedan.0 routing_S-N-sedan.0" vType="sedan" speedFactor="1.05" vaporized=""/>
    <tripinfo id="W-E-sedan.0" depart="3.00" departLane="+W_1" departPos="5.10" departSpeed="0.00" departDelay="3.00" arrival="34.00" arrivalLane="-E_1" arrivalPos="100.00" arrivalSpeed="15.02" duration="31.00" routeLength="394.90" waitingTime="0.00" waitingCount="0" stopTime="0.00" timeLoss="4.36" rerouteNo="1" devices="tripinfo_W-E-sedan.0 routing_W-E-sedan.0" vType="sedan" speedFactor="1.09" vaporized=""/>
    <tripinfo id="W-S-sedan.0" depart="6.00" departLane="+W_1" departPos="5.10" departSpeed="0.00" departDelay="6.00" arrival="36.00" arrivalLane="-S_1" arrivalPos="120.08" arrivalSpeed="13.87" duration="30.00" routeLength="350.37" waitingTime="0.00" waitingCount="0" stopTime="0.00" timeLoss="4.72" rerouteNo="1" devices="tripinfo_W-S-sedan.0 routing_W-S-sedan.0" vType="sedan" speedFactor="1.03" vaporized=""/>
    <tripinfo id="N-S-sedan.0" depart="3.00" departLane="+N_1" departPos="5.10" departSpeed="0.00" departDelay="3.00" arrival="41.00" arrivalLane="-S_2" arrivalPos="120.08" arrivalSpeed="12.41" duration="38.00" routeLength="425.83" waitingTime="0.00" waitingCount="0" stopTime="0.00" timeLoss="5.14" rerouteNo="1" devices="tripinfo_N-S-sedan.0 routing_N-S-sedan.0" vType="sedan" speedFactor="0.94" vaporized=""/>
    <tripinfo id="E-N-sedan.1" depart="9.00" departLane="+E_1" departPos="5.10" departSpeed="0.00" departDelay="8.00" arrival="41.00" arrivalLane="-N_1" arrivalPos="120.08" arrivalSpeed="11.68" duration="32.00" routeLength="350.37" waitingTime="0.00" waitingCount="0" stopTime="0.00" timeLoss="4.44" rerouteNo="1" devices="tripinfo_E-N-sedan.1 routing_E-N-sedan.1" vType="sedan" speedFactor="0.93" vaporized=""/>
    <tripinfo id="E-W-sedan.0" depart="6.00" departLane="+E_1" departPos="5.10" departSpeed="0.00" departDelay="6.00" arrival="45.00" arrivalLane="-W_1" arrivalPos="100.00" arrivalSpeed="11.23" duration="39.00" routeLength="394.90" waitingTime="0.00" waitingCount="0" stopTime="0.00" timeLoss="4.76" rerouteNo="1" devices="tripinfo_E-W-sedan.0 routing_E-W-sedan.0" vType="sedan" speedFactor="0.83" vaporized=""/>
    <tripinfo id="N-S-sedan.1" depart="12.00" departLane="+N_1" departPos="5.10" departSpeed="0.00" departDelay="11.00" arrival="45.00" arrivalLane="-S_2" arrivalPos="120.08" arrivalSpeed="15.01" duration="33.00" routeLength="425.83" waitingTime="0.00" waitingCount="0" stopTime="0.00" timeLoss="4.81" rerouteNo="1" devices="tripinfo_N-S-sedan.1 routing_N-S-sedan.1" vType="sedan" speedFactor="1.12" vaporized=""/>
    <tripinfo id="S-N-sedan.1" depart="9.00" departLane="+S_1" departPos="5.10" departSpeed="0.00" departDelay="8.00" arrival="46.00" arrivalLane="-N_2" arrivalPos="120.08" arrivalSpeed="11.96" duration="37.00" routeLength="425.83" waitingTime="0.00" waitingCount="0" stopTime="0.00" timeLoss="3.93" rerouteNo="1" devices="tripinfo_S-N-sedan.1 routing_S-N-sedan.1" vType="sedan" speedFactor="0.94" vaporized=""/>
    <tripinfo id="W-E-sedan.1" depart="12.00" departLane="+W_1" departPos="5.10" departSpeed="0.00" departDelay="11.00" arrival="46.00" arrivalLane="-E_1" arrivalPos="100.00" arrivalSpeed="13.20" duration="34.00" routeLength="394.90" waitingTime="0.00" waitingCount="0" stopTime="0.00" timeLoss="4.02" rerouteNo="1" devices="tripinfo_W-E-sedan.1 routing_W-E-sedan.1" vType="sedan" speedFactor="0.97" vaporized=""/>
    <tripinfo id="N-E-sedan.0" depart="0.00" departLane="+N_1" departPos="5.10" departSpeed="0.00" departDelay="0.00" arrival="47.00" arrivalLane="-E_1" arrivalPos="100.00" arrivalSpeed="13.73" duration="47.00" routeLength="594.44" waitingTime="0.00" waitingCount="0" stopTime="0.00" timeLoss="6.50" rerouteNo="1" devices="tripinfo_N-E-sedan.0 routing_N-E-sedan.0" vType="sedan" speedFactor="1.06" vaporized=""/>
    <tripinfo id="S-E-sedan.0" depart="3.00" departLane="+S_1" departPos="5.10" departSpeed="0.00" departDelay="3.00" arrival="48.00" arrivalLane="-E_2" arrivalPos="100.00" arrivalSpeed="11.78" duration="45.00" routeLength="469.44" waitingTime="0.00" waitingCount="0" stopTime="0.00" timeLoss="7.56" rerouteNo="1" devices="tripinfo_S-E-sedan.0 routing_S-E-sedan.0" vType="sedan" speedFactor="0.89" vaporized=""/>
    <tripinfo id="W-S-sedan.1" depart="15.00" departLane="+W_1" departPos="5.10" departSpeed="0.00" departDelay="14.00" arrival="48.00" arrivalLane="-S_1" arrivalPos="120.08" arrivalSpeed="11.21" duration="33.00" routeLength="350.37" waitingTime="0.00" waitingCount="0" stopTime="0.00" timeLoss="4.20" rerouteNo="1" devices="tripinfo_W-S-sedan.1 routing_W-S-sedan.1" vType="sedan" speedFactor="0.89" vaporized=""/>
    <tripinfo id="S-E-sedan.1" depart="12.00" departLane="+S_1" departPos="5.10" departSpeed="0.00" departDelay="11.00" arrival="49.00" arrivalLane="-E_1" arrivalPos="100.00" arrivalSpeed="16.05" duration="37.00" routeLength="469.44" waitingTime="0.00" waitingCount="0" stopTime="0.00" timeLoss="8.07" rerouteNo="1" devices="tripinfo_S-E-sedan.1 routing_S-E-sedan.1" vType="sedan" speedFactor="1.16" vaporized=""/>
    <tripinfo id="E-N-sedan.2" depart="18.00" departLane="+E_1" departPos="5.10" departSpeed="0.00" departDelay="16.00" arrival="49.00" arrivalLane="-N_1" arrivalPos="120.08" arrivalSpeed="13.11" duration="31.00" routeLength="350.37" waitingTime="0.00" waitingCount="0" stopTime="0.00" timeLoss="4.11" rerouteNo="1" devices="tripinfo_E-N-sedan.2 routing_E-N-sedan.2" vType="sedan" speedFactor="0.95" vaporized=""/>
    <tripinfo id="S-N-sedan.2" depart="18.00" departLane="+S_1" departPos="5.10" departSpeed="0.00" departDelay="16.00" arrival="49.00" arrivalLane="-N_2" arrivalPos="120.08" arrivalSpeed="15.92" duration="31.00" routeLength="425.83" waitingTime="0.00" waitingCount="0" stopTime="0.00" timeLoss="4.63" rerouteNo="1" devices="tripinfo_S-N-sedan.2 routing_S-N-sedan.2" vType="sedan" speedFactor="1.18" vaporized=""/>
    <tripinfo id="N-W-sedan.0" depart="6.00" departLane="+N_1" departPos="5.10" departSpeed="0.00" departDelay="6.00" arrival="50.00" arrivalLane="-W_2" arrivalPos="100.00" arrivalSpeed="13.86" duration="44.00" routeLength="469.44" waitingTime="0.00" waitingCount="0" stopTime="0.00" timeLoss="9.77" rerouteNo="1" devices="tripinfo_N-W-sedan.0 routing_N-W-sedan.0" vType="sedan" speedFactor="1.01" vaporized=""/>
    <tripinfo id="E-W-sedan.1" depart="15.00" departLane="+E_1" departPos="5.10" departSpeed="0.00" departDelay="14.00" arrival="50.00" arrivalLane="-W_1" arrivalPos="100.00" arrivalSpeed="12.39" duration="35.00" routeLength="394.90" waitingTime="0.00" waitingCount="0" stopTime="0.00" timeLoss="4.74" rerouteNo="1" devices="tripinfo_E-W-sedan.1 routing_E-W-sedan.1" vType="sedan" speedFactor="0.94" vaporized=""/>
    <tripinfo id="W-S-sedan.2" depart="24.00" departLane="+W_1" departPos="5.10" departSpeed="0.00" departDelay="22.00" arrival="54.00" arrivalLane="-S_1" arrivalPos="120.08" arrivalSpeed="13.54" duration="30.00" routeLength="350.37" waitingTime="0.00" waitingCount="0" stopTime="0.00" timeLoss="4.92" rerouteNo="1" devices="tripinfo_W-S-sedan.2 routing_W-S-sedan.2" vType="sedan" speedFactor="1.02" vaporized=""/>
    <tripinfo id="N-W-sedan.1" depart="15.00" departLane="+N_1" departPos="5.10" departSpeed="0.00" departDelay="14.00" arrival="55.00" arrivalLane="-W_2" arrivalPos="100.00" arrivalSpeed="13.33" duration="40.00" routeLength="469.44" waitingTime="0.00" waitingCount="0" stopTime="0.00" timeLoss="5.23" rerouteNo="1" devices="tripinfo_N-W-sedan.1 routing_N-W-sedan.1" vType="sedan" speedFactor="0.99" vaporized=""/>
    <tripinfo id="E-S-sedan.0" depart="3.00" departLane="+E_1" departPos="5.10" departSpeed="0.00" departDelay="3.00" arrival="56.00" arrivalLane="-S_1" arrivalPos="120.08" arrivalSpeed="13.07" duration="53.00" routeLength="500.37" waitingTime="6.00" waitingCount="1" stopTime="0.00" timeLoss="17.70" rerouteNo="1" devices="tripinfo_E-S-sedan.0 routing_E-S-sedan.0" vType="sedan" speedFactor="1.03" vaporized=""/>
    <tripinfo id="N-E-sedan.1" depart="9.00" departLane="+N_1" departPos="5.10" departSpeed="0.00" departDelay="8.00" arrival="56.00" arrivalLane="-E_1" arrivalPos="100.00" arrivalSpeed="13.65" duration="47.00" routeLength="594.44" waitingTime="0.00" waitingCount="0" stopTime="0.00" timeLoss="5.38" rerouteNo="1" devices="tripinfo_N-E-sedan.1 routing_N-E-sedan.1" vType="sedan" speedFactor="1.05" vaporized=""/>
    <tripinfo id="S-E-sedan.2" depart="21.00" departLane="+S_1" departPos="5.10" departSpeed="0.00" departDelay="19.00" arrival="56.00" arrivalLane="-E_2" arrivalPos="100.00" arrivalSpeed="14.81" duration="35.00" routeLength="469.44" waitingTime="0.00" waitingCount="0" stopTime="0.00" timeLoss="5.20" rerouteNo="1" devices="tripinfo_S-E-sedan.2 routing_S-E-sedan.2" vType="sedan" speedFactor="1.15" vaporized=""/>
    <tripinfo id="S-W-sedan.0" depart="6.00" departLane="+S_1" departPos="5.10" departSpeed="0.00" departDelay="6.00" arrival="58.00" arrivalLane="-W_1" arrivalPos="100.00" arrivalSpeed="12.38" duration="52.00" routeLength="594.44" waitingTime="0.00" waitingCount="0" stopTime="0.00" timeLoss="5.52" rerouteNo="1" devices="tripinfo_S-W-sedan.0 routing_S-W-sedan.0" vType="sedan" speedFactor="0.94" vaporized=""/>
    <tripinfo id="W-N-sedan.0" depart="0.00" departLane="+W_1" departPos="5.10" departSpeed="0.00" departDelay="0.00" arrival="60.00" arrivalLane="-N_1" arrivalPos="120.08" arrivalSpeed="10.69" duration="60.00" routeLength="500.37" waitingTime="5.00" waitingCount="1" stopTime="0.00" timeLoss="17.25" rerouteNo="1" devices="tripinfo_W-N-sedan.0 routing_W-N-sedan.0" vType="sedan" speedFactor="0.86" vaporized=""/>
    <tripinfo id="S-N-sedan.3" depart="27.00" departLane="+S_1" departPos="5.10" departSpeed="0.00" departDelay="24.00" arrival="60.00" arrivalLane="-N_2" arrivalPos="120.08" arrivalSpeed="15.02" duration="33.00" routeLength="425.83" waitingTime="0.00" waitingCount="0" stopTime="0.00" timeLoss="4.70" rerouteNo="1" devices="tripinfo_S-N-sedan.3 routing_S-N-sedan.3" vType="sedan" speedFactor="1.09" vaporized=""/>
    <tripinfo id="W-N-sedan.1" depart="9.00" departLane="+W_1" departPos="5.10" departSpeed="0.00" departDelay="8.00" arrival="61.00" arrivalLane="-N_1" arrivalPos="120.08" arrivalSpeed="13.34" duration="52.00" routeLength="500.37" waitingTime="2.00" waitingCount="1" stopTime="0.00" timeLoss="16.26" rerouteNo="1" devices="tripinfo_W-N-sedan.1 routing_W-N-sedan.1" vType="sedan" speedFactor="1.01" vaporized=""/>
    <tripinfo id="N-S-sedan.2" depart="21.00" departLane="+N_1" departPos="5.10" departSpeed="0.00" departDelay="19.00" arrival="61.00" arrivalLane="-S_2" arrivalPos="120.08" arrivalSpeed="11.26" duration="40.00" routeLength="425.83" waitingTime="0.00" waitingCount="0" stopTime="0.00" timeLoss="4.74" rerouteNo="1" devices="tripinfo_N-S-sedan.2 routing_N-S-sedan.2" vType="sedan" speedFactor="0.87" vaporized=""/>
    <tripinfo id="E-S-sedan.1" depart="12.00" departLane="+E_1" departPos="5.10" departSpeed="0.00" departDelay="11.00" arrival="63.00" arrivalLane="-S_1" arrivalPos="120.08" arrivalSpeed="11.71" duration="51.00" routeLength="500.37" waitingTime="1.00" waitingCount="1" stopTime="0.00" timeLoss="9.89" rerouteNo="1" devices="tripinfo_E-S-sedan.1 routing_E-S-sedan.1" vType="sedan" speedFactor="0.88" vaporized=""/>
    <tripinfo id="S-W-sedan.1" depart="15.00" departLane="+S_1" departPos="5.10" departSpeed="0.00" departDelay="14.00" arrival="63.00" arrivalLane="-W_1" arrivalPos="100.00" arrivalSpeed="13.92" duration="48.00" routeLength="594.44" waitingTime="0.00" waitingCount="0" stopTime="0.00" timeLoss="5.21" rerouteNo="1" devices="tripinfo_S-W-sedan.1 routing_S-W-sedan.1" vType="sedan" speedFactor="1.02" vaporized=""/>
    <tripinfo id="W-N-sedan.2" depart="18.00" departLane="+W_1" departPos="5.10" departSpeed="0.00" departDelay="16.00" arrival="63.00" arrivalLane="-N_1" arrivalPos="120.08" arrivalSpeed="14.74" duration="45.00" routeLength="500.37" waitingTime="0.00" waitingCount="0" stopTime="0.00" timeLoss="13.96" rerouteNo="1" devices="tripinfo_W-N-sedan.2 routing_W-N-sedan.2" vType="sedan" speedFactor="1.17" vaporized=""/>
    <tripinfo id="N-S-sedan.3" depart="30.00" departLane="+N_1" departPos="5.10" departSpeed="0.00" departDelay="27.00" arrival="63.00" arrivalLane="-S_2" arrivalPos="120.08" arrivalSpeed="14.54" duration="33.00" routeLength="425.83" waitingTime="0.00" waitingCount="0" stopTime="0.00" timeLoss="6.56" rerouteNo="1" devices="tripinfo_N-S-sedan.3 routing_N-S-sedan.3" vType="sedan" speedFactor="1.18" vaporized=""/>
    <tripinfo id="N-W-sedan.2" depart="24.00" departLane="+N_1" departPos="5.10" departSpeed="0.00" departDelay="22.00" arrival="66.00" arrivalLane="-W_2" arrivalPos="100.00" arrivalSpeed="12.50" duration="42.00" routeLength="469.44" waitingTime="0.00" waitingCount="0" stopTime="0.00" timeLoss="4.78" rerouteNo="1" devices="tripinfo_N-W-sedan.2 routing_N-W-sedan.2" vType="sedan" speedFactor="0.92" vaporized=""/>
    <tripinfo id="S-E-sedan.3" depart="30.00" departLane="+S_1" departPos="5.10" departSpeed="0.00" departDelay="27.00" arrival="68.00" arrivalLane="-E_2" arrivalPos="100.00" arrivalSpeed="14.24" duration="38.00" routeLength="469.44" waitingTime="0.00" waitingCount="0" stopTime="0.00" timeLoss="4.97" rerouteNo="1" devices="tripinfo_S-E-sedan.3 routing_S-E-sedan.3" vType="sedan" speedFactor="1.04" vaporized=""/>
    <tripinfo id="N-W-sedan.3" depart="33.00" departLane="+N_1" departPos="5.10" departSpeed="0.00" departDelay="30.00" arrival="69.00" arrivalLane="-W_2" arrivalPos="100.00" arrivalSpeed="14.72" duration="36.00" routeLength="469.44" waitingTime="0.00" waitingCount="0" stopTime="0.00" timeLoss="4.40" rerouteNo="1" devices="tripinfo_N-W-sedan.3 routing_N-W-sedan.3" vType="sedan" speedFactor="1.10" vaporized=""/>
    <tripinfo id="S-W-sedan.2" depart="24.00" departLane="+S_1" departPos="5.10" departSpeed="0.00" departDelay="22.00" arrival="72.00" arrivalLane="-W_1" arrivalPos="100.00" arrivalSpeed="13.76" duration="48.00" routeLength="594.44" waitingTime="0.00" waitingCount="0" stopTime="0.00" timeLoss="5.12" rerouteNo="1" devices="tripinfo_S-W-sedan.2 routing_S-W-sedan.2" vType="sedan" speedFactor="1.01" vaporized=""/>
    <tripinfo id="S-N-sedan.4" depart="36.00" departLane="+S_1" departPos="5.10" departSpeed="0.00" departDelay="32.00" arrival="72.00" arrivalLane="-N_2" arrivalPos="120.08" arrivalSpeed="13.81" duration="36.00" routeLength="425.83" waitingTime="0.00" waitingCount="0" stopTime="0.00" timeLoss="4.75" rerouteNo="1" devices="tripinfo_S-N-sedan.4 routing_S-N-sedan.4" vType="sedan" speedFactor="1.00" vaporized=""/>
    <tripinfo id="N-E-sedan.2" depart="18.00" departLane="+N_1" departPos="5.10" departSpeed="0.00" departDelay="16.00" arrival="75.00" arrivalLane="-E_1" arrivalPos="100.00" arrivalSpeed="10.72" duration="57.00" routeLength="594.44" waitingTime="0.00" waitingCount="0" stopTime="0.00" timeLoss="5.09" rerouteNo="1" devices="tripinfo_N-E-sedan.2 routing_N-E-sedan.2" vType="sedan" speedFactor="0.83" vaporized=""/>
    <tripinfo id="N-E-sedan.3" depart="27.00" departLane="+N_1" departPos="5.10" departSpeed="0.00" departDelay="24.00" arrival="77.00" arrivalLane="-E_1" arrivalPos="100.00" arrivalSpeed="12.30" duration="50.00" routeLength="594.44" waitingTime="0.00" waitingCount="0" stopTime="0.00" timeLoss="5.60" rerouteNo="1" devices="tripinfo_N-E-sedan.3 routing_N-E-sedan.3" vType="sedan" speedFactor="0.97" vaporized=""/>
    <tripinfo id="S-E-sedan.4" depart="39.00" departLane="+S_1" departPos="5.10" departSpeed="0.00" departDelay="35.00" arrival="78.00" arrivalLane="-E_2" arrivalPos="100.00" arrivalSpeed="13.74" duration="39.00" routeLength="469.44" waitingTime="0.00" waitingCount="0" stopTime="0.00" timeLoss="4.11" rerouteNo="1" devices="tripinfo_S-E-sedan.4 routing_S-E-sedan.4" vType="sedan" speedFactor="1.00" vaporized=""/>
    <tripinfo id="S-W-sedan.3" depart="33.00" departLane="+S_1" departPos="5.10" departSpeed="0.00" departDelay="30.00" arrival="80.00" arrivalLane="-W_1" arrivalPos="100.00" arrivalSpeed="14.42" duration="47.00" routeLength="594.44" waitingTime="0.00" waitingCount="0" stopTime="0.00" timeLoss="5.64" rerouteNo="1" devices="tripinfo_S-W-sedan.3 routing_S-W-sedan.3" vType="sedan" speedFactor="1.04" vaporized=""/>
    <tripinfo id="N-S-sedan.4" depart="39.00" departLane="+N_1" departPos="5.10" departSpeed="0.00" departDelay="35.00" arrival="81.00" arrivalLane="-S_1" arrivalPos="120.08" arrivalSpeed="10.68" duration="42.00" routeLength="425.83" waitingTime="0.00" waitingCount="0" stopTime="0.00" timeLoss="5.21" rerouteNo="1" devices="tripinfo_N-S-sedan.4 routing_N-S-sedan.4" vType="sedan" speedFactor="0.85" vaporized=""/>
    <tripinfo id="N-S-sedan.5" depart="48.00" departLane="+N_1" departPos="5.10" departSpeed="0.00" departDelay="43.00" arrival="81.00" arrivalLane="-S_2" arrivalPos="120.08" arrivalSpeed="14.63" duration="33.00" routeLength="425.83" waitingTime="0.00" waitingCount="0" stopTime="0.00" timeLoss="5.11" rerouteNo="1" devices="tripinfo_N-S-sedan.5 routing_N-S-sedan.5" vType="sedan" speedFactor="1.12" vaporized=""/>
    <tripinfo id="S-N-sedan.5" depart="45.00" departLane="+S_1" departPos="5.10" departSpeed="0.00" departDelay="40.00" arrival="84.00" arrivalLane="-N_2" arrivalPos="120.08" arrivalSpeed="11.65" duration="39.00" routeLength="425.83" waitingTime="0.00" waitingCount="0" stopTime="0.00" timeLoss="4.46" rerouteNo="1" devices="tripinfo_S-N-sedan.5 routing_S-N-sedan.5" vType="sedan" speedFactor="0.91" vaporized=""/>
    <tripinfo id="S-N-sedan.6" depart="54.00" departLane="+S_1" departPos="5.10" departSpeed="0.00" departDelay="48.00" arrival="89.00" arrivalLane="-N_2" arrivalPos="120.08" arrivalSpeed="13.35" duration="35.00" routeLength="425.83" waitingTime="0.00" waitingCount="0" stopTime="0.00" timeLoss="4.14" rerouteNo="1" devices="tripinfo_S-N-sedan.6 routing_S-N-sedan.6" vType="sedan" speedFactor="1.01" vaporized=""/>
    <tripinfo id="N-E-sedan.4" depart="36.00" departLane="+N_1" departPos="5.10" departSpeed="0.00" departDelay="32.00" arrival="91.00" arrivalLane="-E_1" arrivalPos="100.00" arrivalSpeed="11.06" duration="55.00" routeLength="594.44" waitingTime="0.00" waitingCount="0" stopTime="0.00" timeLoss="5.34" rerouteNo="1" devices="tripinfo_N-E-sedan.4 routing_N-E-sedan.4" vType="sedan" speedFactor="0.88" vaporized=""/>
    <tripinfo id="N-S-sedan.6" depart="57.00" departLane="+N_1" departPos="5.10" departSpeed="0.00" departDelay="51.00" arrival="91.00" arrivalLane="-S_2" arrivalPos="120.08" arrivalSpeed="13.42" duration="34.00" routeLength="425.83" waitingTime="0.00" waitingCount="0" stopTime="0.00" timeLoss="4.25" rerouteNo="1" devices="tripinfo_N-S-sedan.6 routing_N-S-sedan.6" vType="sedan" speedFactor="1.06" vaporized=""/>
    <tripinfo id="W-E-sedan.2" depart="21.00" departLane="+W_1" departPos="5.10" departSpeed="0.00" departDelay="19.00" arrival="94.00" arrivalLane="-E_2" arrivalPos="100.00" arrivalSpeed="13.17" duration="73.00" routeLength="394.90" waitingTime="34.00" waitingCount="1" stopTime="0.00" timeLoss="44.40" rerouteNo="1" devices="tripinfo_W-E-sedan.2 routing_W-E-sedan.2" vType="sedan" speedFactor="0.99" vaporized=""/>
    <tripinfo id="E-N-sedan.3" depart="27.00" departLane="+E_1" departPos="5.10" departSpeed="0.00" departDelay="24.00" arrival="95.00" arrivalLane="-N_1" arrivalPos="120.08" arrivalSpeed="11.72" duration="68.00" routeLength="350.37" waitingTime="30.00" waitingCount="1" stopTime="0.00" timeLoss="39.95" rerouteNo="1" devices="tripinfo_E-N-sedan.3 routing_E-N-sedan.3" vType="sedan" speedFactor="0.90" vaporized=""/>
    <tripinfo id="W-E-sedan.3" depart="30.00" departLane="+W_1" departPos="5.10" departSpeed="0.00" departDelay="27.00" arrival="95.00" arrivalLane="-E_1" arrivalPos="100.00" arrivalSpeed="13.55" duration="65.00" routeLength="394.90" waitingTime="27.00" waitingCount="1" stopTime="0.00" timeLoss="36.34" rerouteNo="1" devices="tripinfo_W-E-sedan.3 routing_W-E-sedan.3" vType="sedan" speedFactor="1.00" vaporized=""/>
    <tripinfo id="E-W-sedan.2" depart="24.00" departLane="+E_1" departPos="5.10" departSpeed="0.00" departDelay="22.00" arrival="96.00" arrivalLane="-W_1" arrivalPos="100.00" arrivalSpeed="11.98" duration="72.00" routeLength="394.90" waitingTime="32.00" waitingCount="1" stopTime="0.00" timeLoss="41.45" rerouteNo="1" devices="tripinfo_E-W-sedan.2 routing_E-W-sedan.2" vType="sedan" speedFactor="0.93" vaporized=""/>
    <tripinfo id="W-S-sedan.3" depart="33.00" departLane="+W_1" departPos="5.10" departSpeed="0.00" departDelay="30.00" arrival="96.00" arrivalLane="-S_1" arrivalPos="120.08" arrivalSpeed="11.62" duration="63.00" routeLength="350.37" waitingTime="24.00" waitingCount="1" stopTime="0.00" timeLoss="34.28" rerouteNo="1" devices="tripinfo_W-S-sedan.3 routing_W-S-sedan.3" vType="sedan" speedFactor="0.90" vaporized=""/>
    <tripinfo id="E-N-sedan.4" depart="36.00" departLane="+E_1" departPos="5.10" departSpeed="0.00" departDelay="32.00" arrival="97.00" arrivalLane="-N_1" arrivalPos="120.08" arrivalSpeed="15.26" duration="61.00" routeLength="350.37" waitingTime="25.00" waitingCount="1" stopTime="0.00" timeLoss="38.94" rerouteNo="1" devices="tripinfo_E-N-sedan.4 routing_E-N-sedan.4" vType="sedan" speedFactor="1.17" vaporized=""/>
    <tripinfo id="S-N-sedan.7" depart="63.00" departLane="+S_1" departPos="5.10" departSpeed="0.00" departDelay="56.00" arrival="98.00" arrivalLane="-N_2" arrivalPos="120.08" arrivalSpeed="13.46" duration="35.00" routeLength="425.83" waitingTime="0.00" waitingCount="0" stopTime="0.00" timeLoss="4.52" rerouteNo="1" devices="tripinfo_S-N-sedan.7 routing_S-N-sedan.7" vType="sedan" speedFactor="1.02" vaporized=""/>
    <tripinfo id="E-W-sedan.3" depart="33.00" departLane="+E_1" departPos="5.10" departSpeed="0.00" departDelay="30.00" arrival="99.00" arrivalLane="-W_1" arrivalPos="100.00" arrivalSpeed="12.68" duration="66.00" routeLength="394.90" waitingTime="27.00" waitingCount="1" stopTime="0.00" timeLoss="36.08" rerouteNo="1" devices="tripinfo_E-W-sedan.3 routing_E-W-sedan.3" vType="sedan" speedFactor="0.96" vaporized=""/>
    <tripinfo id="W-E-sedan.4" depart="39.00" departLane="+W_1" departPos="5.10" departSpeed="0.00" departDelay="35.00" arrival="99.00" arrivalLane="-E_1" arrivalPos="100.00" arrivalSpeed="14.13" duration="60.00" routeLength="394.90" waitingTime="20.00" waitingCount="1" stopTime="0.00" timeLoss="31.31" rerouteNo="1" devices="tripinfo_W-E-sedan.4 routing_W-E-sedan.4" vType="sedan" speedFactor="1.02" vaporized=""/>
    <tripinfo id="W-S-sedan.4" depart="42.00" departLane="+W_1" departPos="5.10" departSpeed="0.00" departDelay="38.00" arrival="99.00" arrivalLane="-S_1" arrivalPos="120.08" arrivalSpeed="12.34" duration="57.00" routeLength="350.37" waitingTime="19.00" waitingCount="1" stopTime="0.00" timeLoss="30.20" rerouteNo="1" devices="tripinfo_W-S-sedan.4 routing_W-S-sedan.4" vType="sedan" speedFactor="0.97" vaporized=""/>
    <tripinfo id="W-S-sedan.5" depart="51.00" departLane="+W_1" departPos="5.10" departSpeed="0.00" departDelay="46.00" arrival="100.00" arrivalLane="-S_1" arrivalPos="120.08" arrivalSpeed="12.89" duration="49.00" routeLength="350.37" waitingTime="11.00" waitingCount="1" stopTime="0.00" timeLoss="23.07" rerouteNo="1" devices="tripinfo_W-S-sedan.5 routing_W-S-sedan.5" vType="sedan" speedFactor="0.97" vaporized=""/>
    <tripinfo id="E-N-sedan.5" depart="45.00" departLane="+E_1" departPos="5.10" departSpeed="0.00" departDelay="40.00" arrival="101.00" arrivalLane="-N_1" arrivalPos="120.08" arrivalSpeed="12.54" duration="56.00" routeLength="350.37" waitingTime="17.00" waitingCount="1" stopTime="0.00" timeLoss="29.71" rerouteNo="1" devices="tripinfo_E-N-sedan.5 routing_E-N-sedan.5" vType="sedan" speedFactor="0.99" vaporized=""/>
    <tripinfo id="N-S-sedan.7" depart="66.00" departLane="+N_1" departPos="5.10" departSpeed="0.00" departDelay="59.00" arrival="102.00" arrivalLane="-S_2" arrivalPos="120.08" arrivalSpeed="12.69" duration="36.00" routeLength="425.83" waitingTime="0.00" waitingCount="0" stopTime="0.00" timeLoss="4.42" rerouteNo="1" devices="tripinfo_N-S-sedan.7 routing_N-S-sedan.7" vType="sedan" speedFactor="0.98" vaporized=""/>
    <tripinfo id="E-N-sedan.6" depart="54.00" departLane="+E_1" departPos="5.10" departSpeed="0.00" departDelay="48.00" arrival="103.00" arrivalLane="-N_1" arrivalPos="120.08" arrivalSpeed="12.50" duration="49.00" routeLength="350.37" waitingTime="10.00" waitingCount="1" stopTime="0.00" timeLoss="22.49" rerouteNo="1" devices="tripinfo_E-N-sedan.6 routing_E-N-sedan.6" vType="sedan" speedFactor="0.98" vaporized=""/>
    <tripinfo id="E-W-sedan.4" depart="42.00" departLane="+E_1" departPos="5.10" departSpeed="0.00" departDelay="38.00" arrival="104.00" arrivalLane="-W_1" arrivalPos="100.00" arrivalSpeed="14.73" duration="62.00" routeLength="394.90" waitingTime="19.00" waitingCount="1" stopTime="0.00" timeLoss="35.82" rerouteNo="1" devices="tripinfo_E-W-sedan.4 routing_E-W-sedan.4" vType="sedan" speedFactor="1.10" vaporized=""/>
    <tripinfo id="W-E-sedan.6" depart="57.00" departLane="+W_1" departPos="5.10" departSpeed="0.00" departDelay="51.00" arrival="104.00" arrivalLane="-E_1" arrivalPos="100.00" arrivalSpeed="13.96" duration="47.00" routeLength="394.90" waitingTime="6.00" waitingCount="1" stopTime="0.00" timeLoss="18.71" rerouteNo="1" devices="tripinfo_W-E-sedan.6 routing_W-E-sedan.6" vType="sedan" speedFactor="1.02" vaporized=""/>
    <tripinfo id="E-N-sedan.7" depart="64.00" departLane="+E_1" departPos="5.10" departSpeed="0.00" departDelay="57.00" arrival="104.00" arrivalLane="-N_1" arrivalPos="120.08" arrivalSpeed="13.29" duration="40.00" routeLength="350.37" waitingTime="2.00" waitingCount="1" stopTime="0.00" timeLoss="15.64" rerouteNo="1" devices="tripinfo_E-N-sedan.7 routing_E-N-sedan.7" vType="sedan" speedFactor="1.04" vaporized=""/>
    <tripinfo id="W-S-sedan.6" depart="60.00" departLane="+W_1" departPos="5.10" departSpeed="0.00" departDelay="54.00" arrival="105.00" arrivalLane="-S_1" arrivalPos="120.08" arrivalSpeed="12.58" duration="45.00" routeLength="350.37" waitingTime="5.00" waitingCount="1" stopTime="0.00" timeLoss="18.16" rerouteNo="1" devices="tripinfo_W-S-sedan.6 routing_W-S-sedan.6" vType="sedan" speedFactor="0.97" vaporized=""/>
    <tripinfo id="W-S-sedan.7" depart="69.00" departLane="+W_1" departPos="5.10" departSpeed="0.00" departDelay="62.00" arrival="106.00" arrivalLane="-S_1" arrivalPos="120.08" arrivalSpeed="13.71" duration="37.00" routeLength="350.37" waitingTime="0.00" waitingCount="0" stopTime="0.00" timeLoss="13.12" rerouteNo="1" devices="tripinfo_W-S-sedan.7 routing_W-S-sedan.7" vType="sedan" speedFactor="1.06" vaporized=""/>
    <tripinfo id="E-N-sedan.8" depart="73.00" departLane="+E_1" departPos="5.10" departSpeed="0.00" departDelay="65.00" arrival="106.00" arrivalLane="-N_1" arrivalPos="120.08" arrivalSpeed="15.17" duration="33.00" routeLength="350.37" waitingTime="0.00" waitingCount="0" stopTime="0.00" timeLoss="9.38" rerouteNo="1" devices="tripinfo_E-N-sedan.8 routing_E-N-sedan.8" vType="sedan" speedFactor="1.10" vaporized=""/>
    <tripinfo id="E-W-sedan.6" depart="61.00" departLane="+E_1" departPos="5.10" departSpeed="0.00" departDelay="55.00" arrival="107.00" arrivalLane="-W_1" arrivalPos="100.00" arrivalSpeed="13.32" duration="46.00" routeLength="394.90" waitingTime="4.00" waitingCount="1" stopTime="0.00" timeLoss="16.86" rerouteNo="1" devices="tripinfo_E-W-sedan.6 routing_E-W-sedan.6" vType="sedan" speedFactor="0.98" vaporized=""/>
    <tripinfo id="W-E-sedan.5" depart="48.00" departLane="+W_1" departPos="5.10" departSpeed="0.00" departDelay="43.00" arrival="108.00" arrivalLane="-E_1" arrivalPos="100.00" arrivalSpeed="13.20" duration="60.00" routeLength="394.90" waitingTime="14.00" waitingCount="2" stopTime="0.00" timeLoss="32.09" rerouteNo="1" devices="tripinfo_W-E-sedan.5 routing_W-E-sedan.5" vType="sedan" speedFactor="1.02" vaporized=""/>
    <tripinfo id="S-N-sedan.8" depart="72.00" departLane="+S_1" departPos="5.10" departSpeed="0.00" departDelay="64.00" arrival="108.00" arrivalLane="-N_2" arrivalPos="120.08" arrivalSpeed="12.15" duration="36.00" routeLength="425.83" waitingTime="0.00" waitingCount="0" stopTime="0.00" timeLoss="4.14" rerouteNo="1" devices="tripinfo_S-N-sedan.8 routing_S-N-sedan.8" vType="sedan" speedFactor="0.97" vaporized=""/>