<?xml version="1.0" encoding="UTF-8"?>

<!-- generated on 2023-04-18 12:18:06 by Eclipse SUMO GUI Version 1.15.0
<configuration xmlns:xsi="http://www.w3.org/2001/XMLSchema-instance" xsi:noNamespaceSchemaLocation="http://sumo.dlr.de/xsd/sumoConfiguration.xsd">

    <input>
        <net-file value="Z:\Users\708891\Desktop\APResearch\Simulations\continuousFlow.net.xml"/>
        <route-files value="Z:\Users\708891\Desktop\APResearch\Simulations\unifiedDistribution.rou.xml"/>
    </input>

    <output>
        <tripinfo-output value="Z:\Users\708891\Desktop\APResearch\Simulations\output\continuousFlow\continuousFlowTripinfo2.xml"/>
        <collision-output value="Z:\Users\708891\Desktop\APResearch\Simulations\output\continuousFlow\continuousFlowCollision2.xml"/>
        <statistic-output value="Z:\Users\708891\Desktop\APResearch\Simulations\output\continuousFlow\continuousFlowNetworkStats2.xml"/>
    </output>

</configuration>
-->

<tripinfos xmlns:xsi="http://www.w3.org/2001/XMLSchema-instance" xsi:noNamespaceSchemaLocation="http://sumo.dlr.de/xsd/tripinfo_file.xsd">
    <tripinfo id="E-N-sedan.0" depart="0.00" departLane="+E_1" departPos="5.10" departSpeed="0.00" departDelay="0.00" arrival="32.00" arrivalLane="-N_1" arrivalPos="100.00" arrivalSpeed="14.79" duration="32.00" routeLength="405.37" waitingTime="0.00" waitingCount="0" stopTime="0.00" timeLoss="4.32" rerouteNo="1" devices="tripinfo_E-N-sedan.0 routing_E-N-sedan.0" vType="sedan" speedFactor="1.08" vaporized=""/>
    <tripinfo id="W-E-sedan.0" depart="3.00" departLane="+W_1" departPos="5.10" departSpeed="0.00" departDelay="3.00" arrival="35.00" arrivalLane="-E_1" arrivalPos="100.00" arrivalSpeed="14.01" duration="32.00" routeLength="397.20" waitingTime="0.00" waitingCount="0" stopTime="0.00" timeLoss="4.91" rerouteNo="1" devices="tripinfo_W-E-sedan.0 routing_W-E-sedan.0" vType="sedan" speedFactor="1.09" vaporized=""/>
    <tripinfo id="S-E-sedan.0" depart="3.00" departLane="+S_1" departPos="5.10" departSpeed="0.00" departDelay="3.00" arrival="39.00" arrivalLane="-E_1" arrivalPos="100.00" arrivalSpeed="12.11" duration="36.00" routeLength="369.57" waitingTime="0.00" waitingCount="0" stopTime="0.00" timeLoss="5.30" rerouteNo="1" devices="tripinfo_S-E-sedan.0 routing_S-E-sedan.0" vType="sedan" speedFactor="0.89" vaporized=""/>
    <tripinfo id="W-S-sedan.0" depart="6.00" departLane="+W_1" departPos="5.10" departSpeed="0.00" departDelay="6.00" arrival="39.00" arrivalLane="-S_1" arrivalPos="100.00" arrivalSpeed="13.24" duration="33.00" routeLength="405.37" waitingTime="0.00" waitingCount="0" stopTime="0.00" timeLoss="4.33" rerouteNo="1" devices="tripinfo_W-S-sedan.0 routing_W-S-sedan.0" vType="sedan" speedFactor="1.03" vaporized=""/>
    <tripinfo id="N-W-sedan.0" depart="6.00" departLane="+N_1" departPos="5.10" departSpeed="0.00" departDelay="6.00" arrival="40.00" arrivalLane="-W_1" arrivalPos="100.00" arrivalSpeed="12.74" duration="34.00" routeLength="369.57" waitingTime="0.00" waitingCount="0" stopTime="0.00" timeLoss="7.04" rerouteNo="1" devices="tripinfo_N-W-sedan.0 routing_N-W-sedan.0" vType="sedan" speedFactor="1.01" vaporized=""/>
    <tripinfo id="E-W-sedan.0" depart="6.00" departLane="+E_1" departPos="5.10" departSpeed="0.00" departDelay="6.00" arrival="45.00" arrivalLane="-W_1" arrivalPos="100.00" arrivalSpeed="11.13" duration="39.00" routeLength="397.20" waitingTime="0.00" waitingCount="0" stopTime="0.00" timeLoss="3.99" rerouteNo="1" devices="tripinfo_E-W-sedan.0 routing_E-W-sedan.0" vType="sedan" speedFactor="0.83" vaporized=""/>
    <tripinfo id="E-N-sedan.1" depart="9.00" departLane="+E_1" departPos="5.10" departSpeed="0.00" departDelay="8.00" arrival="45.00" arrivalLane="-N_1" arrivalPos="100.00" arrivalSpeed="11.62" duration="36.00" routeLength="405.37" waitingTime="0.00" waitingCount="0" stopTime="0.00" timeLoss="4.41" rerouteNo="1" devices="tripinfo_E-N-sedan.1 routing_E-N-sedan.1" vType="sedan" speedFactor="0.93" vaporized=""/>
    <tripinfo id="W-E-sedan.1" depart="11.00" departLane="+W_1" departPos="5.10" departSpeed="0.00" departDelay="10.00" arrival="45.00" arrivalLane="-E_1" arrivalPos="100.00" arrivalSpeed="12.71" duration="34.00" routeLength="397.20" waitingTime="0.00" waitingCount="0" stopTime="0.00" timeLoss="4.49" rerouteNo="1" devices="tripinfo_W-E-sedan.1 routing_W-E-sedan.1" vType="sedan" speedFactor="0.97" vaporized=""/>
    <tripinfo id="N-W-sedan.1" depart="15.00" departLane="+N_1" departPos="5.10" departSpeed="0.00" departDelay="14.00" arrival="48.00" arrivalLane="-W_1" arrivalPos="100.00" arrivalSpeed="12.54" duration="33.00" routeLength="369.57" waitingTime="0.00" waitingCount="0" stopTime="0.00" timeLoss="5.35" rerouteNo="1" devices="tripinfo_N-W-sedan.1 routing_N-W-sedan.1" vType="sedan" speedFactor="0.99" vaporized=""/>
    <tripinfo id="S-E-sedan.1" depart="12.00" departLane="+S_1" departPos="5.10" departSpeed="0.00" departDelay="11.00" arrival="50.00" arrivalLane="-E_1" arrivalPos="100.00" arrivalSpeed="14.97" duration="38.00" routeLength="369.57" waitingTime="3.00" waitingCount="1" stopTime="0.00" timeLoss="14.70" rerouteNo="1" devices="tripinfo_S-E-sedan.1 routing_S-E-sedan.1" vType="sedan" speedFactor="1.16" vaporized=""/>
    <tripinfo id="W-S-sedan.1" depart="14.00" departLane="+W_1" departPos="5.10" departSpeed="0.00" departDelay="13.00" arrival="51.00" arrivalLane="-S_1" arrivalPos="100.00" arrivalSpeed="11.18" duration="37.00" routeLength="405.37" waitingTime="0.00" waitingCount="0" stopTime="0.00" timeLoss="3.88" rerouteNo="1" devices="tripinfo_W-S-sedan.1 routing_W-S-sedan.1" vType="sedan" speedFactor="0.89" vaporized=""/>
    <tripinfo id="S-E-sedan.2" depart="21.00" departLane="+S_1" departPos="5.10" departSpeed="0.00" departDelay="19.00" arrival="52.00" arrivalLane="-E_1" arrivalPos="100.00" arrivalSpeed="14.96" duration="31.00" routeLength="369.57" waitingTime="0.00" waitingCount="0" stopTime="0.00" timeLoss="7.27" rerouteNo="1" devices="tripinfo_S-E-sedan.2 routing_S-E-sedan.2" vType="sedan" speedFactor="1.15" vaporized=""/>
    <tripinfo id="E-N-sedan.2" depart="18.00" departLane="+E_1" departPos="5.10" departSpeed="0.00" departDelay="16.00" arrival="54.00" arrivalLane="-N_1" arrivalPos="100.00" arrivalSpeed="12.19" duration="36.00" routeLength="405.37" waitingTime="0.00" waitingCount="0" stopTime="0.00" timeLoss="4.51" rerouteNo="1" devices="tripinfo_E-N-sedan.2 routing_E-N-sedan.2" vType="sedan" speedFactor="0.95" vaporized=""/>
    <tripinfo id="W-S-sedan.2" depart="23.00" departLane="+W_1" departPos="5.10" departSpeed="0.00" departDelay="21.00" arrival="57.00" arrivalLane="-S_1" arrivalPos="100.00" arrivalSpeed="13.85" duration="34.00" routeLength="405.37" waitingTime="1.00" waitingCount="1" stopTime="0.00" timeLoss="7.51" rerouteNo="1" devices="tripinfo_W-S-sedan.2 routing_W-S-sedan.2" vType="sedan" speedFactor="1.02" vaporized=""/>
    <tripinfo id="S-N-sedan.0" depart="0.00" departLane="+S_1" departPos="5.10" departSpeed="0.00" departDelay="0.00" arrival="58.00" arrivalLane="-N_1" arrivalPos="100.00" arrivalSpeed="13.91" duration="58.00" routeLength="413.54" waitingTime="20.00" waitingCount="1" stopTime="0.00" timeLoss="29.50" rerouteNo="1" devices="tripinfo_S-N-sedan.0 routing_S-N-sedan.0" vType="sedan" speedFactor="1.05" vaporized=""/>
    <tripinfo id="N-W-sedan.2" depart="24.00" departLane="+N_1" departPos="5.10" departSpeed="0.00" departDelay="22.00" arrival="58.00" arrivalLane="-W_1" arrivalPos="100.00" arrivalSpeed="12.35" duration="34.00" routeLength="369.57" waitingTime="0.00" waitingCount="0" stopTime="0.00" timeLoss="4.16" rerouteNo="1" devices="tripinfo_N-W-sedan.2 routing_N-W-sedan.2" vType="sedan" speedFactor="0.92" vaporized=""/>
    <tripinfo id="S-N-sedan.3" depart="27.00" departLane="+S_1" departPos="5.10" departSpeed="0.00" departDelay="24.00" arrival="60.00" arrivalLane="-N_2" arrivalPos="100.00" arrivalSpeed="14.42" duration="33.00" routeLength="413.54" waitingTime="0.00" waitingCount="0" stopTime="0.00" timeLoss="8.87" rerouteNo="1" devices="tripinfo_S-N-sedan.3 routing_S-N-sedan.3" vType="sedan" speedFactor="1.09" vaporized=""/>
    <tripinfo id="N-S-sedan.0" depart="3.00" departLane="+N_1" departPos="5.10" departSpeed="0.00" departDelay="3.00" arrival="61.00" arrivalLane="-S_1" arrivalPos="100.00" arrivalSpeed="12.83" duration="58.00" routeLength="413.54" waitingTime="15.00" waitingCount="1" stopTime="0.00" timeLoss="25.48" rerouteNo="1" devices="tripinfo_N-S-sedan.0 routing_N-S-sedan.0" vType="sedan" speedFactor="0.94" vaporized=""/>
    <tripinfo id="E-S-sedan.0" depart="3.00" departLane="+E_1" departPos="5.10" departSpeed="0.00" departDelay="3.00" arrival="61.00" arrivalLane="-S_2" arrivalPos="100.00" arrivalSpeed="13.91" duration="58.00" routeLength="369.57" waitingTime="21.00" waitingCount="1" stopTime="0.00" timeLoss="31.95" rerouteNo="1" devices="tripinfo_E-S-sedan.0 routing_E-S-sedan.0" vType="sedan" speedFactor="1.03" vaporized=""/>
    <tripinfo id="S-E-sedan.3" depart="30.00" departLane="+S_1" departPos="5.10" departSpeed="0.00" departDelay="27.00" arrival="61.00" arrivalLane="-E_1" arrivalPos="100.00" arrivalSpeed="14.31" duration="31.00" routeLength="369.57" waitingTime="0.00" waitingCount="0" stopTime="0.00" timeLoss="4.46" rerouteNo="1" devices="tripinfo_S-E-sedan.3 routing_S-E-sedan.3" vType="sedan" speedFactor="1.04" vaporized=""/>
    <tripinfo id="N-S-sedan.1" depart="12.00" departLane="+N_1" departPos="5.10" departSpeed="0.00" departDelay="11.00" arrival="62.00" arrivalLane="-S_1" arrivalPos="100.00" arrivalSpeed="13.26" duration="50.00" routeLength="413.54" waitingTime="10.00" waitingCount="1" stopTime="0.00" timeLoss="23.42" rerouteNo="1" devices="tripinfo_N-S-sedan.1 routing_N-S-sedan.1" vType="sedan" speedFactor="1.12" vaporized=""/>
    <tripinfo id="S-N-sedan.1" depart="9.00" departLane="+S_1" departPos="5.10" departSpeed="0.00" departDelay="8.00" arrival="63.00" arrivalLane="-N_1" arrivalPos="100.00" arrivalSpeed="12.51" duration="54.00" routeLength="413.54" waitingTime="11.00" waitingCount="1" stopTime="0.00" timeLoss="21.32" rerouteNo="1" devices="tripinfo_S-N-sedan.1 routing_S-N-sedan.1" vType="sedan" speedFactor="0.94" vaporized=""/>
    <tripinfo id="W-N-sedan.0" depart="0.00" departLane="+W_1" departPos="5.10" departSpeed="0.00" departDelay="0.00" arrival="64.00" arrivalLane="-N_2" arrivalPos="100.00" arrivalSpeed="11.15" duration="64.00" routeLength="369.57" waitingTime="24.00" waitingCount="1" stopTime="0.00" timeLoss="32.62" rerouteNo="1" devices="tripinfo_W-N-sedan.0 routing_W-N-sedan.0" vType="sedan" speedFactor="0.86" vaporized=""/>
    <tripinfo id="S-N-sedan.2" depart="18.00" departLane="+S_1" departPos="5.10" departSpeed="0.00" departDelay="16.00" arrival="64.00" arrivalLane="-N_1" arrivalPos="100.00" arrivalSpeed="14.89" duration="46.00" routeLength="413.54" waitingTime="5.00" waitingCount="1" stopTime="0.00" timeLoss="20.43" rerouteNo="1" devices="tripinfo_S-N-sedan.2 routing_S-N-sedan.2" vType="sedan" speedFactor="1.18" vaporized=""/>
    <tripinfo id="N-S-sedan.2" depart="21.00" departLane="+N_1" departPos="5.10" departSpeed="0.00" departDelay="19.00" arrival="65.00" arrivalLane="-S_1" arrivalPos="100.00" arrivalSpeed="11.09" duration="44.00" routeLength="413.54" waitingTime="1.00" waitingCount="1" stopTime="0.00" timeLoss="9.79" rerouteNo="1" devices="tripinfo_N-S-sedan.2 routing_N-S-sedan.2" vType="sedan" speedFactor="0.87" vaporized=""/>
    <tripinfo id="E-S-sedan.1" depart="12.00" departLane="+E_1" departPos="5.10" departSpeed="0.00" departDelay="11.00" arrival="66.00" arrivalLane="-S_2" arrivalPos="100.00" arrivalSpeed="11.63" duration="54.00" routeLength="369.57" waitingTime="14.00" waitingCount="1" stopTime="0.00" timeLoss="23.01" rerouteNo="1" devices="tripinfo_E-S-sedan.1 routing_E-S-sedan.1" vType="sedan" speedFactor="0.88" vaporized=""/>
    <tripinfo id="W-N-sedan.1" depart="9.00" departLane="+W_1" departPos="5.10" departSpeed="0.00" departDelay="8.00" arrival="66.00" arrivalLane="-N_2" arrivalPos="100.00" arrivalSpeed="13.35" duration="57.00" routeLength="369.57" waitingTime="18.00" waitingCount="1" stopTime="0.00" timeLoss="29.96" rerouteNo="1" devices="tripinfo_W-N-sedan.1 routing_W-N-sedan.1" vType="sedan" speedFactor="1.01" vaporized=""/>
    <tripinfo id="W-N-sedan.2" depart="17.00" departLane="+W_1" departPos="5.10" departSpeed="0.00" departDelay="15.00" arrival="67.00" arrivalLane="-N_2" arrivalPos="100.00" arrivalSpeed="14.98" duration="50.00" routeLength="369.57" waitingTime="11.00" waitingCount="1" stopTime="0.00" timeLoss="27.17" rerouteNo="1" devices="tripinfo_W-N-sedan.2 routing_W-N-sedan.2" vType="sedan" speedFactor="1.17" vaporized=""/>
    <tripinfo id="E-S-sedan.2" depart="21.00" departLane="+E_1" departPos="5.10" departSpeed="0.00" departDelay="19.00" arrival="68.00" arrivalLane="-S_2" arrivalPos="100.00" arrivalSpeed="14.25" duration="47.00" routeLength="369.57" waitingTime="7.00" waitingCount="1" stopTime="0.00" timeLoss="22.60" rerouteNo="1" devices="tripinfo_E-S-sedan.2 routing_E-S-sedan.2" vType="sedan" speedFactor="1.13" vaporized=""/>
    <tripinfo id="E-N-sedan.3" depart="27.00" departLane="+E_1" departPos="5.10" departSpeed="0.00" departDelay="24.00" arrival="69.00" arrivalLane="-N_1" arrivalPos="100.00" arrivalSpeed="12.07" duration="42.00" routeLength="405.37" waitingTime="0.00" waitingCount="0" stopTime="0.00" timeLoss="8.85" rerouteNo="1" devices="tripinfo_E-N-sedan.3 routing_E-N-sedan.3" vType="sedan" speedFactor="0.90" vaporized=""/>
    <tripinfo id="E-S-sedan.3" depart="30.00" departLane="+E_1" departPos="5.10" departSpeed="0.00" departDelay="27.00" arrival="69.00" arrivalLane="-S_2" arrivalPos="100.00" arrivalSpeed="14.08" duration="39.00" routeLength="369.57" waitingTime="0.00" waitingCount="0" stopTime="0.00" timeLoss="12.87" rerouteNo="1" devices="tripinfo_E-S-sedan.3 routing_E-S-sedan.3" vType="sedan" speedFactor="1.03" vaporized=""/>
    <tripinfo id="W-N-sedan.3" depart="26.00" departLane="+W_1" departPos="5.10" departSpeed="0.00" departDelay="23.00" arrival="69.00" arrivalLane="-N_2" arrivalPos="100.00" arrivalSpeed="14.61" duration="43.00" routeLength="369.57" waitingTime="2.00" waitingCount="1" stopTime="0.00" timeLoss="18.21" rerouteNo="1" devices="tripinfo_W-N-sedan.3 routing_W-N-sedan.3" vType="sedan" speedFactor="1.09" vaporized=""/>
    <tripinfo id="W-S-sedan.3" depart="32.00" departLane="+W_1" departPos="5.10" departSpeed="0.00" departDelay="29.00" arrival="70.00" arrivalLane="-S_1" arrivalPos="100.00" arrivalSpeed="11.22" duration="38.00" routeLength="405.37" waitingTime="0.00" waitingCount="0" stopTime="0.00" timeLoss="4.77" rerouteNo="1" devices="tripinfo_W-S-sedan.3 routing_W-S-sedan.3" vType="sedan" speedFactor="0.90" vaporized=""/>
    <tripinfo id="E-N-sedan.4" depart="36.00" departLane="+E_1" departPos="5.10" departSpeed="0.00" departDelay="32.00" arrival="71.00" arrivalLane="-N_1" arrivalPos="100.00" arrivalSpeed="13.66" duration="35.00" routeLength="405.37" waitingTime="0.00" waitingCount="0" stopTime="0.00" timeLoss="9.25" rerouteNo="1" devices="tripinfo_E-N-sedan.4 routing_E-N-sedan.4" vType="sedan" speedFactor="1.17" vaporized=""/>
    <tripinfo id="E-S-sedan.4" depart="39.00" departLane="+E_1" departPos="5.10" departSpeed="0.00" departDelay="35.00" arrival="71.00" arrivalLane="-S_2" arrivalPos="100.00" arrivalSpeed="13.75" duration="32.00" routeLength="369.57" waitingTime="0.00" waitingCount="0" stopTime="0.00" timeLoss="5.17" rerouteNo="1" devices="tripinfo_E-S-sedan.4 routing_E-S-sedan.4" vType="sedan" speedFactor="1.02" vaporized=""/>
    <tripinfo id="W-N-sedan.4" depart="35.00" departLane="+W_1" departPos="5.10" departSpeed="0.00" departDelay="31.00" arrival="71.00" arrivalLane="-N_2" arrivalPos="100.00" arrivalSpeed="14.89" duration="36.00" routeLength="369.57" waitingTime="0.00" waitingCount="0" stopTime="0.00" timeLoss="12.03" rerouteNo="1" devices="tripinfo_W-N-sedan.4 routing_W-N-sedan.4" vType="sedan" speedFactor="1.14" vaporized=""/>
    <tripinfo id="W-N-sedan.5" depart="43.00" departLane="+W_1" departPos="5.10" departSpeed="0.00" departDelay="38.00" arrival="74.00" arrivalLane="-N_2" arrivalPos="100.00" arrivalSpeed="13.99" duration="31.00" routeLength="369.57" waitingTime="0.00" waitingCount="0" stopTime="0.00" timeLoss="4.36" rerouteNo="1" devices="tripinfo_W-N-sedan.5 routing_W-N-sedan.5" vType="sedan" speedFactor="1.02" vaporized=""/>
    <tripinfo id="W-S-sedan.4" depart="40.00" departLane="+W_1" departPos="5.10" departSpeed="0.00" departDelay="36.00" arrival="77.00" arrivalLane="-S_1" arrivalPos="100.00" arrivalSpeed="12.86" duration="37.00" routeLength="405.37" waitingTime="0.00" waitingCount="0" stopTime="0.00" timeLoss="6.39" rerouteNo="1" devices="tripinfo_W-S-sedan.4 routing_W-S-sedan.4" vType="sedan" speedFactor="0.97" vaporized=""/>
    <tripinfo id="E-N-sedan.5" depart="44.00" departLane="+E_1" departPos="5.10" departSpeed="0.00" departDelay="39.00" arrival="79.00" arrivalLane="-N_1" arrivalPos="100.00" arrivalSpeed="13.13" duration="35.00" routeLength="405.37" waitingTime="0.00" waitingCount="0" stopTime="0.00" timeLoss="5.33" rerouteNo="1" devices="tripinfo_E-N-sedan.5 routing_E-N-sedan.5" vType="sedan" speedFactor="0.99" vaporized=""/>
    <tripinfo id="E-S-sedan.5" depart="47.00" departLane="+E_1" departPos="5.10" departSpeed="0.00" departDelay="42.00" arrival="80.00" arrivalLane="-S_2" arrivalPos="100.00" arrivalSpeed="11.73" duration="33.00" routeLength="369.57" waitingTime="0.00" waitingCount="0" stopTime="0.00" timeLoss="4.24" rerouteNo="1" devices="tripinfo_E-S-sedan.5 routing_E-S-sedan.5" vType="sedan" speedFactor="0.94" vaporized=""/>
    <tripinfo id="W-N-sedan.6" depart="51.00" departLane="+W_1" departPos="5.10" departSpeed="0.00" departDelay="45.00" arrival="82.00" arrivalLane="-N_2" arrivalPos="100.00" arrivalSpeed="13.84" duration="31.00" routeLength="369.57" waitingTime="0.00" waitingCount="0" stopTime="0.00" timeLoss="4.17" rerouteNo="1" devices="tripinfo_W-N-sedan.6 routing_W-N-sedan.6" vType="sedan" speedFactor="1.00" vaporized=""/>
    <tripinfo id="W-S-sedan.5" depart="48.00" departLane="+W_1" departPos="5.10" departSpeed="0.00" departDelay="43.00" arrival="85.00" arrivalLane="-S_1" arrivalPos="100.00" arrivalSpeed="12.93" duration="37.00" routeLength="405.37" waitingTime="0.00" waitingCount="0" stopTime="0.00" timeLoss="6.80" rerouteNo="1" devices="tripinfo_W-S-sedan.5 routing_W-S-sedan.5" vType="sedan" speedFactor="0.97" vaporized=""/>
    <tripinfo id="E-S-sedan.6" depart="55.00" departLane="+E_1" departPos="5.10" departSpeed="0.00" departDelay="49.00" arrival="85.00" arrivalLane="-S_2" arrivalPos="100.00" arrivalSpeed="14.06" duration="30.00" routeLength="369.57" waitingTime="0.00" waitingCount="0" stopTime="0.00" timeLoss="3.98" rerouteNo="1" devices="tripinfo_E-S-sedan.6 routing_E-S-sedan.6" vType="sedan" speedFactor="1.03" vaporized=""/>
    <tripinfo id="E-N-sedan.6" depart="52.00" departLane="+E_1" departPos="5.10" departSpeed="0.00" departDelay="46.00" arrival="87.00" arrivalLane="-N_1" arrivalPos="100.00" arrivalSpeed="13.43" duration="35.00" routeLength="405.37" waitingTime="0.00" waitingCount="0" stopTime="0.00" timeLoss="5.04" rerouteNo="1" devices="tripinfo_E-N-sedan.6 routing_E-N-sedan.6" vType="sedan" speedFactor="0.98" vaporized=""/>
    <tripinfo id="W-N-sedan.7" depart="59.00" departLane="+W_1" departPos="5.10" departSpeed="0.00" departDelay="52.00" arrival="92.00" arrivalLane="-N_2" arrivalPos="100.00" arrivalSpeed="12.76" duration="33.00" routeLength="369.57" waitingTime="0.00" waitingCount="0" stopTime="0.00" timeLoss="4.08" rerouteNo="1" devices="tripinfo_W-N-sedan.7 routing_W-N-sedan.7" vType="sedan" speedFactor="0.92" vaporized=""/>
    <tripinfo id="W-S-sedan.6" depart="56.00" departLane="+W_1" departPos="5.10" departSpeed="0.00" departDelay="50.00" arrival="93.00" arrivalLane="-S_1" arrivalPos="100.00" arrivalSpeed="12.36" duration="37.00" routeLength="405.37" waitingTime="0.00" waitingCount="0" stopTime="0.00" timeLoss="6.24" rerouteNo="1" devices="tripinfo_W-S-sedan.6 routing_W-S-sedan.6" vType="sedan" speedFactor="0.97" vaporized=""/>
    <tripinfo id="E-W-sedan.1" depart="15.00" departLane="+E_1" departPos="5.10" departSpeed="0.00" departDelay="14.00" arrival="95.00" arrivalLane="-W_1" arrivalPos="100.00" arrivalSpeed="12.62" duration="80.00" routeLength="397.20" waitingTime="38.00" waitingCount="1" stopTime="0.00" timeLoss="49.37" rerouteNo="1" devices="tripinfo_E-W-sedan.1 routing_E-W-sedan.1" vType="sedan" speedFactor="0.94" vaporized=""/>
    <tripinfo id="E-N-sedan.7" depart="60.00" departLane="+E_1" departPos="5.10" departSpeed="0.00" departDelay="53.00" arrival="95.00" arrivalLane="-N_1" arrivalPos="100.00" arrivalSpeed="14.27" duration="35.00" routeLength="405.37" waitingTime="0.00" waitingCount="0" stopTime="0.00" timeLoss="6.82" rerouteNo="1" devices="tripinfo_E-N-sedan.7 routing_E-N-sedan.7" vType="sedan" speedFactor="1.04" vaporized=""/>
    <tripinfo id="E-S-sedan.7" depart="63.00" departLane="+E_1" departPos="5.10" departSpeed="0.00" departDelay="56.00" arrival="95.00" arrivalLane="-S_2" arrivalPos="100.00" arrivalSpeed="13.68" duration="32.00" routeLength="369.57" waitingTime="0.00" waitingCount="0" stopTime="0.00" timeLoss="4.82" rerouteNo="1" devices="tripinfo_E-S-sedan.7 routing_E-S-sedan.7" vType="sedan" speedFactor="1.01" vaporized=""/>
    <tripinfo id="W-S-sedan.7" depart="64.00" departLane="+W_1" departPos="5.10" departSpeed="0.00" departDelay="57.00" arrival="97.00" arrivalLane="-S_1" arrivalPos="100.00" arrivalSpeed="14.48" duration="33.00" routeLength="405.37" waitingTime="0.00" waitingCount="0" stopTime="0.00" timeLoss="4.91" rerouteNo="1" devices="tripinfo_W-S-sedan.7 routing_W-S-sedan.7" vType="sedan" speedFactor="1.06" vaporized=""/>
    <tripinfo id="N-E-sedan.0" depart="0.00" departLane="+N_1" departPos="5.10" departSpeed="0.00" departDelay="0.00" arrival="99.00" arrivalLane="-E_2" arrivalPos="100.00" arrivalSpeed="14.41" duration="99.00" routeLength="405.37" waitingTime="62.00" waitingCount="1" stopTime="0.00" timeLoss="71.35" rerouteNo="1" devices="tripinfo_N-E-sedan.0 routing_N-E-sedan.0" vType="sedan" speedFactor="1.06" vaporized=""/>
    <tripinfo id="E-N-sedan.8" depart="68.00" departLane="+E_1" departPos="5.10" departSpeed="0.00" departDelay="60.00" arrival="100.00" arrivalLane="-N_1" arrivalPos="100.00" arrivalSpeed="14.62" duration="32.00" routeLength="405.37" waitingTime="0.00" waitingCount="0" stopTime="0.00" timeLoss="4.68" rerouteNo="1" devices="tripinfo_E-N-sedan.8 routing_E-N-sedan.8" vType="sedan" speedFactor="1.10" vaporized=""/>
    <tripinfo id="S-W-sedan.0" depart="6.00" departLane="+S_1" departPos="5.10" departSpeed="0.00" departDelay="6.00" arrival="101.00" arrivalLane="-W_2" arrivalPos="100.00" arrivalSpeed="11.90" duration="95.00" routeLength="405.37" waitingTime="54.00" waitingCount="1" stopTime="0.00" timeLoss="63.57" rerouteNo="1" devices="tripinfo_S-W-sedan.0 routing_S-W-sedan.0" vType="sedan" speedFactor="0.94" vaporized=""/>
    <tripinfo id="N-E-sedan.1" depart="9.00" departLane="+N_1" departPos="5.10" departSpeed="0.00" departDelay="8.00" arrival="101.00" arrivalLane="-E_2" arrivalPos="100.00" arrivalSpeed="13.85" duration="92.00" routeLength="405.37" waitingTime="54.00" waitingCount="1" stopTime="0.00" timeLoss="64.07" rerouteNo="1" devices="tripinfo_N-E-sedan.1 routing_N-E-sedan.1" vType="sedan" speedFactor="1.05" vaporized=""/>
    <tripinfo id="S-W-sedan.1" depart="15.00" departLane="+S_1" departPos="5.10" departSpeed="0.00" departDelay="14.00" arrival="103.00" arrivalLane="-W_2" arrivalPos="100.00" arrivalSpeed="13.83" duration="88.00" routeLength="405.37" waitingTime="47.00" waitingCount="1" stopTime="0.00" timeLoss="58.68" rerouteNo="1" devices="tripinfo_S-W-sedan.1 routing_S-W-sedan.1" vType="sedan" speedFactor="1.02" vaporized=""/>
    <tripinfo id="S-W-sedan.2" depart="24.00" departLane="+S_1" departPos="5.10" departSpeed="0.00" departDelay="22.00" arrival="105.00" arrivalLane="-W_2" arrivalPos="100.00" arrivalSpeed="13.91" duration="81.00" routeLength="405.37" waitingTime="39.00" waitingCount="1" stopTime="0.00" timeLoss="51.03" rerouteNo="1" devices="tripinfo_S-W-sedan.2 routing_S-W-sedan.2" vType="sedan" speedFactor="1.01" vaporized=""/>
    <tripinfo id="N-E-sedan.2" depart="18.00" departLane="+N_1" departPos="5.10" departSpeed="0.00" departDelay="16.00" arrival="106.00" arrivalLane="-E_2" arrivalPos="100.00" arrivalSpeed="10.94" duration="88.00" routeLength="405.37" waitingTime="44.00" waitingCount="1" stopTime="0.00" timeLoss="52.59" rerouteNo="1" devices="tripinfo_N-E-sedan.2 routing_N-E-sedan.2" vType="sedan" speedFactor="0.83" vaporized=""/>
    <tripinfo id="W-S-sedan.8" depart="73.00" departLane="+W_1" departPos="5.10" departSpeed="0.00" departDelay="65.00" arrival="106.00" arrivalLane="-S_1" arrivalPos="100.00" arrivalSpeed="13.75" duration="33.00" routeLength="405.37" waitingTime="0.00" waitingCount="0" stopTime="0.00" timeLoss="4.08" rerouteNo="1" devices="tripinfo_W-S-sedan.8 routing_W-S-sedan.8" vType="sedan" speedFactor="1.03" vaporized=""/>
    <tripinfo id="S-W-sedan.3" depart="33.00" departLane="+S_1" departPos="5.10" departSpeed="0.00" departDelay="30.00" arrival="109.00" arrivalLane="-W_2" arrivalPos="100.00" arrivalSpeed="13.27" duration="76.00" routeLength="405.37" waitingTime="38.00" waitingCount="1" stopTime="0.00" timeLoss="47.90" rerouteNo="1" devices="tripinfo_S-W-sedan.3 routing_S-W-sedan.3" vType="sedan" speedFactor="1.04" vaporized=""/>
    <tripinfo id="N-E-sedan.3" depart="27.00" departLane="+N_1" departPos="5.10" departSpeed="0.00" departDelay="24.00" arrival="111.00" arrivalLane="-E_2" arrivalPos="100.00" arrivalSpeed="12.29" duration="84.00" routeLength="405.37" waitingTime="44.00" waitingCount="1" stopTime="0.00" timeLoss="53.85" rerouteNo="1" devices="tripinfo_N-E-sedan.3 routing_N-E-sedan.3" vType="sedan" speedFactor="0.97" vaporized=""/>
    <tripinfo id="S-W-sedan.4" depart="42.00" departLane="+S_1" departPos="5.10" departSpeed="0.00" departDelay="38.00" arrival="114.00" arrivalLane="-W_2" arrivalPos="100.00" arrivalSpeed="12.04" duration="72.00" routeLength="405.37" waitingTime="31.00" waitingCount="1" stopTime="0.00" timeLoss="38.80" rerouteNo="1" devices="tripinfo_S-W-sedan.4 routing_S-W-sedan.4" vType="sedan" speedFactor="0.90" vaporized=""/>
    <tripinfo id="W-S-sedan.9" depart="82.00" departLane="+W_1" departPos="5.10" departSpeed="0.00" departDelay="73.00" arrival="114.00" arrivalLane="-S_1" arrivalPos="100.00" arrivalSpeed="14.71" duration="32.00" routeLength="405.37" waitingTime="0.00" waitingCount="0" stopTime="0.00" timeLoss="4.22" rerouteNo="1" devices="tripinfo_W-S-sedan.9 routing_W-S-sedan.9" vType="sedan" speedFactor="1.07" vaporized=""/>
    <tripinfo id="N-E-sedan.4" depart="36.00" departLane="+N_1" departPos="5.10" departSpeed="0.00" departDelay="32.00" arrival="115.00" arrivalLane="-E_2" arrivalPos="100.00" arrivalSpeed="11.23" duration="79.00" routeLength="405.37" waitingTime="34.00" waitingCount="1" stopTime="0.00" timeLoss="45.39" rerouteNo="1" devices="tripinfo_N-E-sedan.4 routing_N-E-sedan.4" vType="sedan" speedFactor="0.88" vaporized=""/>
    <tripinfo id="S-W-sedan.5" depart="51.00" departLane="+S_1" departPos="5.10" departSpeed="0.00" departDelay="46.00" arrival="115.00" arrivalLane="-W_2" arrivalPos="100.00" arrivalSpeed="14.25" duration="64.00" routeLength="405.37" waitingTime="24.00" waitingCount="1" stopTime="0.00" timeLoss="35.83" rerouteNo="1" devices="tripinfo_S-W-sedan.5 routing_S-W-sedan.5" vType="sedan" speedFactor="1.04" vaporized=""/>
    <tripinfo id="E-N-sedan.9" depart="77.00" departLane="+E_1" departPos="5.10" departSpeed="0.00" departDelay="68.00" arrival="116.00" arrivalLane="-N_1" arrivalPos="100.00" arrivalSpeed="11.56" duration="39.00" routeLength="405.37" waitingTime="0.00" waitingCount="0" stopTime="0.00" timeLoss="4.36" rerouteNo="1" devices="tripinfo_E-N-sedan.9 routing_E-N-sedan.9" vType="sedan" speedFactor="0.87" vaporized=""/>
    <tripinfo id="N-E-sedan.5" depart="45.00" departLane="+N_1" departPos="5.10" departSpeed="0.00" departDelay="40.00" arrival="117.00" arrivalLane="-E_2" arrivalPos="100.00" arrivalSpeed="14.31" duration="72.00" routeLength="405.37" waitingTime="29.00" waitingCount="1" stopTime="0.00" timeLoss="44.31" rerouteNo="1" devices="tripinfo_N-E-sedan.5 routing_N-E-sedan.5" vType="sedan" speedFactor="1.08" vaporized=""/>
    <tripinfo id="S-W-sedan.6" depart="60.00" departLane="+S_1" departPos="5.10" departSpeed="0.00" departDelay="54.00" arrival="117.00" arrivalLane="-W_2" arrivalPos="100.00" arrivalSpeed="13.14" duration="57.00" routeLength="405.37" waitingTime="16.00" waitingCount="1" stopTime="0.00" timeLoss="28.42" rerouteNo="1" devices="tripinfo_S-W-sedan.6 routing_S-W-sedan.6" vType="sedan" speedFactor="1.03" vaporized=""/>
    <tripinfo id="N-E-sedan.6" depart="54.00" departLane="+N_1" departPos="5.10" departSpeed="0.00" departDelay="48.00" arrival="119.00" arrivalLane="-E_2" arrivalPos="100.00" arrivalSpeed="12.14" duration="65.00" routeLength="405.37" waitingTime="21.00" waitingCount="1" stopTime="0.00" timeLoss="33.19" rerouteNo="1" devices="tripinfo_N-E-sedan.6 routing_N-E-sedan.6" vType="sedan" speedFactor="0.94" vaporized=""/>
    <tripinfo id="E-N-sedan.10" depart="86.00" departLane="+E_1" departPos="5.10" departSpeed="0.00" departDelay="76.00" arrival="119.00" arrivalLane="-N_1" arrivalPos="100.00" arrivalSpeed="13.37" duration="33.00" routeLength="405.37" waitingTime="0.00" waitingCount="0" stopTime="0.00" timeLoss="4.25" rerouteNo="1" devices="tripinfo_E-N-sedan.10 routing_E-N-sedan.10" vType="sedan" speedFactor="1.02" vaporized=""/>