<?xml version="1.0" encoding="UTF-8"?>

<!-- generated on 2023-04-09 18:27:36 by Eclipse SUMO GUI Version 1.15.0
<configuration xmlns:xsi="http://www.w3.org/2001/XMLSchema-instance" xsi:noNamespaceSchemaLocation="http://sumo.dlr.de/xsd/sumoConfiguration.xsd">

    <input>
        <net-file value="Z:\Users\708891\Desktop\AP research\Simulations\overpass.net.xml"/>
        <route-files value="Z:\Users\708891\Desktop\AP research\Simulations\unifiedDistribution.rou.xml"/>
    </input>

    <output>
        <tripinfo-output value="Z:\Users\708891\Desktop\AP research\Simulations\output\overpass\overpassTripinfo4.xml"/>
        <collision-output value="Z:\Users\708891\Desktop\AP research\Simulations\output\overpass\overpassCollision4.xml"/>
        <statistic-output value="Z:\Users\708891\Desktop\AP research\Simulations\output\overpass\overpassNetworkStats4.xml"/>
    </output>

</configuration>
-->

<tripinfos xmlns:xsi="http://www.w3.org/2001/XMLSchema-instance" xsi:noNamespaceSchemaLocation="http://sumo.dlr.de/xsd/tripinfo_file.xsd">
    <tripinfo id="S-N-sedan.0" depart="0.00" departLane="+S_1" departPos="5.10" departSpeed="0.00" departDelay="0.00" arrival="32.00" arrivalLane="-N_1" arrivalPos="100.00" arrivalSpeed="14.35" duration="32.00" routeLength="394.90" waitingTime="0.00" waitingCount="0" stopTime="0.00" timeLoss="3.84" rerouteNo="1" devices="tripinfo_S-N-sedan.0 routing_S-N-sedan.0" vType="sedan" speedFactor="1.05" vaporized=""/>
    <tripinfo id="E-N-sedan.0" depart="0.00" departLane="+E_1" departPos="5.10" departSpeed="0.00" departDelay="0.00" arrival="34.00" arrivalLane="-N_1" arrivalPos="100.00" arrivalSpeed="14.10" duration="34.00" routeLength="376.51" waitingTime="0.00" waitingCount="0" stopTime="0.00" timeLoss="8.24" rerouteNo="1" devices="tripinfo_E-N-sedan.0 routing_E-N-sedan.0" vType="sedan" speedFactor="1.08" vaporized=""/>
    <tripinfo id="W-E-sedan.0" depart="3.00" departLane="+W_1" departPos="5.10" departSpeed="0.00" departDelay="3.00" arrival="34.00" arrivalLane="-E_2" arrivalPos="114.44" arrivalSpeed="14.47" duration="31.00" routeLength="394.89" waitingTime="0.00" waitingCount="0" stopTime="0.00" timeLoss="4.79" rerouteNo="1" devices="tripinfo_W-E-sedan.0 routing_W-E-sedan.0" vType="sedan" speedFactor="1.09" vaporized=""/>
    <tripinfo id="N-E-sedan.0" depart="0.00" departLane="+N_1" departPos="5.10" departSpeed="0.00" departDelay="0.00" arrival="36.00" arrivalLane="-E_1" arrivalPos="114.44" arrivalSpeed="14.50" duration="36.00" routeLength="426.51" waitingTime="0.00" waitingCount="0" stopTime="0.00" timeLoss="6.46" rerouteNo="1" devices="tripinfo_N-E-sedan.0 routing_N-E-sedan.0" vType="sedan" speedFactor="1.06" vaporized=""/>
    <tripinfo id="W-S-sedan.0" depart="6.00" departLane="+W_1" departPos="5.10" departSpeed="0.00" departDelay="6.00" arrival="38.00" arrivalLane="-S_1" arrivalPos="100.00" arrivalSpeed="13.69" duration="32.00" routeLength="376.51" waitingTime="0.00" waitingCount="0" stopTime="0.00" timeLoss="5.57" rerouteNo="1" devices="tripinfo_W-S-sedan.0 routing_W-S-sedan.0" vType="sedan" speedFactor="1.03" vaporized=""/>
    <tripinfo id="S-E-sedan.0" depart="3.00" departLane="+S_1" departPos="5.10" departSpeed="0.00" departDelay="3.00" arrival="39.00" arrivalLane="-E_1" arrivalPos="114.44" arrivalSpeed="11.02" duration="36.00" routeLength="376.51" waitingTime="0.00" waitingCount="0" stopTime="0.00" timeLoss="5.03" rerouteNo="1" devices="tripinfo_S-E-sedan.0 routing_S-E-sedan.0" vType="sedan" speedFactor="0.89" vaporized=""/>
    <tripinfo id="E-N-sedan.1" depart="9.00" departLane="+E_1" departPos="5.10" departSpeed="0.00" departDelay="8.00" arrival="43.00" arrivalLane="-N_1" arrivalPos="100.00" arrivalSpeed="12.49" duration="34.00" routeLength="376.51" waitingTime="0.00" waitingCount="0" stopTime="0.00" timeLoss="4.46" rerouteNo="1" devices="tripinfo_E-N-sedan.1 routing_E-N-sedan.1" vType="sedan" speedFactor="0.93" vaporized=""/>
    <tripinfo id="E-W-sedan.0" depart="6.00" departLane="+E_1" departPos="5.10" departSpeed="0.00" departDelay="6.00" arrival="45.00" arrivalLane="-W_1" arrivalPos="114.44" arrivalSpeed="11.18" duration="39.00" routeLength="394.89" waitingTime="0.00" waitingCount="0" stopTime="0.00" timeLoss="4.23" rerouteNo="1" devices="tripinfo_E-W-sedan.0 routing_E-W-sedan.0" vType="sedan" speedFactor="0.83" vaporized=""/>
    <tripinfo id="W-E-sedan.1" depart="12.00" departLane="+W_1" departPos="5.10" departSpeed="0.00" departDelay="11.00" arrival="46.00" arrivalLane="-E_1" arrivalPos="114.44" arrivalSpeed="12.88" duration="34.00" routeLength="394.89" waitingTime="0.00" waitingCount="0" stopTime="0.00" timeLoss="4.40" rerouteNo="1" devices="tripinfo_W-E-sedan.1 routing_W-E-sedan.1" vType="sedan" speedFactor="0.97" vaporized=""/>
    <tripinfo id="E-W-sedan.1" depart="15.00" departLane="+E_1" departPos="5.10" departSpeed="0.00" departDelay="14.00" arrival="50.00" arrivalLane="-W_1" arrivalPos="114.44" arrivalSpeed="11.80" duration="35.00" routeLength="394.89" waitingTime="0.00" waitingCount="0" stopTime="0.00" timeLoss="4.61" rerouteNo="1" devices="tripinfo_E-W-sedan.1 routing_E-W-sedan.1" vType="sedan" speedFactor="0.94" vaporized=""/>
    <tripinfo id="W-S-sedan.1" depart="15.00" departLane="+W_1" departPos="5.10" departSpeed="0.00" departDelay="14.00" arrival="50.00" arrivalLane="-S_1" arrivalPos="100.00" arrivalSpeed="11.54" duration="35.00" routeLength="376.51" waitingTime="0.00" waitingCount="0" stopTime="0.00" timeLoss="4.53" rerouteNo="1" devices="tripinfo_W-S-sedan.1 routing_W-S-sedan.1" vType="sedan" speedFactor="0.89" vaporized=""/>
    <tripinfo id="E-N-sedan.2" depart="18.00" departLane="+E_1" departPos="5.10" departSpeed="0.00" departDelay="16.00" arrival="51.00" arrivalLane="-N_1" arrivalPos="100.00" arrivalSpeed="12.88" duration="33.00" routeLength="376.51" waitingTime="0.00" waitingCount="0" stopTime="0.00" timeLoss="4.13" rerouteNo="1" devices="tripinfo_E-N-sedan.2 routing_E-N-sedan.2" vType="sedan" speedFactor="0.95" vaporized=""/>
    <tripinfo id="W-E-sedan.2" depart="21.00" departLane="+W_1" departPos="5.10" departSpeed="0.00" departDelay="19.00" arrival="54.00" arrivalLane="-E_1" arrivalPos="114.44" arrivalSpeed="13.31" duration="33.00" routeLength="394.89" waitingTime="0.00" waitingCount="0" stopTime="0.00" timeLoss="4.24" rerouteNo="1" devices="tripinfo_W-E-sedan.2 routing_W-E-sedan.2" vType="sedan" speedFactor="0.99" vaporized=""/>
    <tripinfo id="W-S-sedan.2" depart="24.00" departLane="+W_1" departPos="5.10" departSpeed="0.00" departDelay="22.00" arrival="56.00" arrivalLane="-S_1" arrivalPos="100.00" arrivalSpeed="13.05" duration="32.00" routeLength="376.51" waitingTime="0.00" waitingCount="0" stopTime="0.00" timeLoss="4.78" rerouteNo="1" devices="tripinfo_W-S-sedan.2 routing_W-S-sedan.2" vType="sedan" speedFactor="1.02" vaporized=""/>
    <tripinfo id="E-W-sedan.2" depart="24.00" departLane="+E_1" departPos="5.10" departSpeed="0.00" departDelay="22.00" arrival="59.00" arrivalLane="-W_1" arrivalPos="114.44" arrivalSpeed="11.73" duration="35.00" routeLength="394.89" waitingTime="0.00" waitingCount="0" stopTime="0.00" timeLoss="4.18" rerouteNo="1" devices="tripinfo_E-W-sedan.2 routing_E-W-sedan.2" vType="sedan" speedFactor="0.93" vaporized=""/>
    <tripinfo id="N-W-sedan.0" depart="6.00" departLane="+N_1" departPos="5.10" departSpeed="0.00" departDelay="6.00" arrival="63.00" arrivalLane="-W_1" arrivalPos="114.44" arrivalSpeed="13.64" duration="57.00" routeLength="376.51" waitingTime="17.00" waitingCount="1" stopTime="0.00" timeLoss="29.30" rerouteNo="1" devices="tripinfo_N-W-sedan.0 routing_N-W-sedan.0" vType="sedan" speedFactor="1.01" vaporized=""/>
    <tripinfo id="E-N-sedan.3" depart="27.00" departLane="+E_1" departPos="5.10" departSpeed="0.00" departDelay="24.00" arrival="63.00" arrivalLane="-N_1" arrivalPos="100.00" arrivalSpeed="11.80" duration="36.00" routeLength="376.51" waitingTime="0.00" waitingCount="0" stopTime="0.00" timeLoss="5.04" rerouteNo="1" devices="tripinfo_E-N-sedan.3 routing_E-N-sedan.3" vType="sedan" speedFactor="0.90" vaporized=""/>
    <tripinfo id="W-E-sedan.3" depart="30.00" departLane="+W_1" departPos="5.10" departSpeed="0.00" departDelay="27.00" arrival="63.00" arrivalLane="-E_1" arrivalPos="114.44" arrivalSpeed="13.75" duration="33.00" routeLength="394.89" waitingTime="0.00" waitingCount="0" stopTime="0.00" timeLoss="4.06" rerouteNo="1" devices="tripinfo_W-E-sedan.3 routing_W-E-sedan.3" vType="sedan" speedFactor="1.00" vaporized=""/>
    <tripinfo id="E-S-sedan.0" depart="3.00" departLane="+E_1" departPos="5.10" departSpeed="0.00" departDelay="3.00" arrival="65.00" arrivalLane="-S_1" arrivalPos="100.00" arrivalSpeed="13.89" duration="62.00" routeLength="426.51" waitingTime="16.00" waitingCount="2" stopTime="0.00" timeLoss="32.06" rerouteNo="1" devices="tripinfo_E-S-sedan.0 routing_E-S-sedan.0" vType="sedan" speedFactor="1.03" vaporized=""/>
    <tripinfo id="N-S-sedan.0" depart="3.00" departLane="+N_1" departPos="5.10" departSpeed="0.00" departDelay="3.00" arrival="66.00" arrivalLane="-S_2" arrivalPos="100.00" arrivalSpeed="12.94" duration="63.00" routeLength="394.90" waitingTime="23.00" waitingCount="1" stopTime="0.00" timeLoss="32.62" rerouteNo="1" devices="tripinfo_N-S-sedan.0 routing_N-S-sedan.0" vType="sedan" speedFactor="0.94" vaporized=""/>
    <tripinfo id="W-N-sedan.1" depart="9.00" departLane="+W_1" departPos="5.10" departSpeed="0.00" departDelay="8.00" arrival="66.00" arrivalLane="-N_2" arrivalPos="100.00" arrivalSpeed="13.52" duration="57.00" routeLength="426.51" waitingTime="11.00" waitingCount="1" stopTime="0.00" timeLoss="26.18" rerouteNo="1" devices="tripinfo_W-N-sedan.1 routing_W-N-sedan.1" vType="sedan" speedFactor="1.01" vaporized=""/>
    <tripinfo id="W-N-sedan.0" depart="0.00" departLane="+W_1" departPos="5.10" departSpeed="0.00" departDelay="0.00" arrival="67.00" arrivalLane="-N_1" arrivalPos="100.00" arrivalSpeed="11.19" duration="67.00" routeLength="426.51" waitingTime="17.00" waitingCount="1" stopTime="0.00" timeLoss="31.17" rerouteNo="1" devices="tripinfo_W-N-sedan.0 routing_W-N-sedan.0" vType="sedan" speedFactor="0.86" vaporized=""/>
    <tripinfo id="E-S-sedan.2" depart="21.00" departLane="+E_1" departPos="5.10" departSpeed="0.00" departDelay="19.00" arrival="67.00" arrivalLane="-S_1" arrivalPos="100.00" arrivalSpeed="14.42" duration="46.00" routeLength="426.51" waitingTime="3.00" waitingCount="1" stopTime="0.00" timeLoss="18.35" rerouteNo="1" devices="tripinfo_E-S-sedan.2 routing_E-S-sedan.2" vType="sedan" speedFactor="1.13" vaporized=""/>
    <tripinfo id="E-W-sedan.3" depart="33.00" departLane="+E_1" departPos="5.10" departSpeed="0.00" departDelay="30.00" arrival="67.00" arrivalLane="-W_1" arrivalPos="114.44" arrivalSpeed="12.84" duration="34.00" routeLength="394.89" waitingTime="0.00" waitingCount="0" stopTime="0.00" timeLoss="3.72" rerouteNo="1" devices="tripinfo_E-W-sedan.3 routing_E-W-sedan.3" vType="sedan" speedFactor="0.96" vaporized=""/>
    <tripinfo id="W-N-sedan.2" depart="18.00" departLane="+W_1" departPos="5.10" departSpeed="0.00" departDelay="16.00" arrival="68.00" arrivalLane="-N_2" arrivalPos="100.00" arrivalSpeed="16.13" duration="50.00" routeLength="426.51" waitingTime="11.00" waitingCount="1" stopTime="0.00" timeLoss="22.93" rerouteNo="1" devices="tripinfo_W-N-sedan.2 routing_W-N-sedan.2" vType="sedan" speedFactor="1.17" vaporized=""/>
    <tripinfo id="N-S-sedan.1" depart="12.00" departLane="+N_1" departPos="5.10" departSpeed="0.00" departDelay="11.00" arrival="69.00" arrivalLane="-S_1" arrivalPos="100.00" arrivalSpeed="15.36" duration="57.00" routeLength="394.90" waitingTime="19.00" waitingCount="1" stopTime="0.00" timeLoss="30.88" rerouteNo="1" devices="tripinfo_N-S-sedan.1 routing_N-S-sedan.1" vType="sedan" speedFactor="1.12" vaporized=""/>
    <tripinfo id="W-N-sedan.3" depart="27.00" departLane="+W_1" departPos="5.10" departSpeed="0.00" departDelay="24.00" arrival="69.00" arrivalLane="-N_1" arrivalPos="100.00" arrivalSpeed="13.66" duration="42.00" routeLength="426.51" waitingTime="0.00" waitingCount="0" stopTime="0.00" timeLoss="13.47" rerouteNo="1" devices="tripinfo_W-N-sedan.3 routing_W-N-sedan.3" vType="sedan" speedFactor="1.09" vaporized=""/>
    <tripinfo id="E-S-sedan.1" depart="12.00" departLane="+E_1" departPos="5.10" departSpeed="0.00" departDelay="11.00" arrival="70.00" arrivalLane="-S_2" arrivalPos="100.00" arrivalSpeed="12.17" duration="58.00" routeLength="426.51" waitingTime="12.00" waitingCount="1" stopTime="0.00" timeLoss="22.09" rerouteNo="1" devices="tripinfo_E-S-sedan.1 routing_E-S-sedan.1" vType="sedan" speedFactor="0.88" vaporized=""/>
    <tripinfo id="S-N-sedan.1" depart="9.00" departLane="+S_1" departPos="5.10" departSpeed="0.00" departDelay="8.00" arrival="71.00" arrivalLane="-N_1" arrivalPos="100.00" arrivalSpeed="12.91" duration="62.00" routeLength="394.90" waitingTime="20.00" waitingCount="1" stopTime="0.00" timeLoss="31.06" rerouteNo="1" devices="tripinfo_S-N-sedan.1 routing_S-N-sedan.1" vType="sedan" speedFactor="0.94" vaporized=""/>
    <tripinfo id="W-E-sedan.4" depart="39.00" departLane="+W_1" departPos="5.10" departSpeed="0.00" departDelay="35.00" arrival="71.00" arrivalLane="-E_1" arrivalPos="114.44" arrivalSpeed="13.48" duration="32.00" routeLength="394.89" waitingTime="0.00" waitingCount="0" stopTime="0.00" timeLoss="4.22" rerouteNo="1" devices="tripinfo_W-E-sedan.4 routing_W-E-sedan.4" vType="sedan" speedFactor="1.02" vaporized=""/>
    <tripinfo id="E-W-sedan.4" depart="42.00" departLane="+E_1" departPos="5.10" departSpeed="0.00" departDelay="38.00" arrival="72.00" arrivalLane="-W_1" arrivalPos="114.44" arrivalSpeed="15.03" duration="30.00" routeLength="394.89" waitingTime="0.00" waitingCount="0" stopTime="0.00" timeLoss="3.97" rerouteNo="1" devices="tripinfo_E-W-sedan.4 routing_E-W-sedan.4" vType="sedan" speedFactor="1.10" vaporized=""/>
    <tripinfo id="S-N-sedan.2" depart="18.00" departLane="+S_1" departPos="5.10" departSpeed="0.00" departDelay="16.00" arrival="73.00" arrivalLane="-N_1" arrivalPos="100.00" arrivalSpeed="16.26" duration="55.00" routeLength="394.90" waitingTime="17.00" waitingCount="1" stopTime="0.00" timeLoss="29.96" rerouteNo="1" devices="tripinfo_S-N-sedan.2 routing_S-N-sedan.2" vType="sedan" speedFactor="1.18" vaporized=""/>
    <tripinfo id="N-S-sedan.3" depart="30.00" departLane="+N_1" departPos="5.10" departSpeed="0.00" departDelay="27.00" arrival="73.00" arrivalLane="-S_2" arrivalPos="100.00" arrivalSpeed="15.81" duration="43.00" routeLength="394.90" waitingTime="6.00" waitingCount="1" stopTime="0.00" timeLoss="18.83" rerouteNo="1" devices="tripinfo_N-S-sedan.3 routing_N-S-sedan.3" vType="sedan" speedFactor="1.18" vaporized=""/>
    <tripinfo id="S-N-sedan.3" depart="27.00" departLane="+S_1" departPos="5.10" departSpeed="0.00" departDelay="24.00" arrival="74.00" arrivalLane="-N_2" arrivalPos="100.00" arrivalSpeed="14.36" duration="47.00" routeLength="394.90" waitingTime="7.00" waitingCount="1" stopTime="0.00" timeLoss="20.53" rerouteNo="1" devices="tripinfo_S-N-sedan.3 routing_S-N-sedan.3" vType="sedan" speedFactor="1.09" vaporized=""/>
    <tripinfo id="N-E-sedan.1" depart="9.00" departLane="+N_1" departPos="5.10" departSpeed="0.00" departDelay="8.00" arrival="76.00" arrivalLane="-E_1" arrivalPos="114.44" arrivalSpeed="14.06" duration="67.00" routeLength="426.51" waitingTime="22.00" waitingCount="2" stopTime="0.00" timeLoss="37.61" rerouteNo="1" devices="tripinfo_N-E-sedan.1 routing_N-E-sedan.1" vType="sedan" speedFactor="1.05" vaporized=""/>
    <tripinfo id="N-S-sedan.2" depart="21.00" departLane="+N_1" departPos="5.10" departSpeed="0.00" departDelay="19.00" arrival="76.00" arrivalLane="-S_1" arrivalPos="100.00" arrivalSpeed="11.26" duration="55.00" routeLength="394.90" waitingTime="12.00" waitingCount="1" stopTime="0.00" timeLoss="21.73" rerouteNo="1" devices="tripinfo_N-S-sedan.2 routing_N-S-sedan.2" vType="sedan" speedFactor="0.87" vaporized=""/>
    <tripinfo id="S-W-sedan.0" depart="6.00" departLane="+S_1" departPos="5.10" departSpeed="0.00" departDelay="6.00" arrival="77.00" arrivalLane="-W_1" arrivalPos="114.44" arrivalSpeed="12.04" duration="71.00" routeLength="426.51" waitingTime="24.00" waitingCount="1" stopTime="0.00" timeLoss="37.50" rerouteNo="1" devices="tripinfo_S-W-sedan.0 routing_S-W-sedan.0" vType="sedan" speedFactor="0.94" vaporized=""/>
    <tripinfo id="S-W-sedan.1" depart="15.00" departLane="+S_1" departPos="5.10" departSpeed="0.00" departDelay="14.00" arrival="78.00" arrivalLane="-W_1" arrivalPos="114.44" arrivalSpeed="13.30" duration="63.00" routeLength="426.51" waitingTime="17.00" waitingCount="1" stopTime="0.00" timeLoss="32.69" rerouteNo="1" devices="tripinfo_S-W-sedan.1 routing_S-W-sedan.1" vType="sedan" speedFactor="1.02" vaporized=""/>
    <tripinfo id="S-N-sedan.4" depart="36.00" departLane="+S_1" departPos="5.10" departSpeed="0.00" departDelay="32.00" arrival="79.00" arrivalLane="-N_1" arrivalPos="100.00" arrivalSpeed="13.04" duration="43.00" routeLength="394.90" waitingTime="3.00" waitingCount="1" stopTime="0.00" timeLoss="13.81" rerouteNo="1" devices="tripinfo_S-N-sedan.4 routing_S-N-sedan.4" vType="sedan" speedFactor="1.00" vaporized=""/>
    <tripinfo id="S-W-sedan.2" depart="24.00" departLane="+S_1" departPos="5.10" departSpeed="0.00" departDelay="22.00" arrival="80.00" arrivalLane="-W_1" arrivalPos="114.44" arrivalSpeed="13.45" duration="56.00" routeLength="426.51" waitingTime="9.00" waitingCount="1" stopTime="0.00" timeLoss="25.06" rerouteNo="1" devices="tripinfo_S-W-sedan.2 routing_S-W-sedan.2" vType="sedan" speedFactor="1.01" vaporized=""/>
    <tripinfo id="N-S-sedan.5" depart="48.00" departLane="+N_1" departPos="5.10" departSpeed="0.00" departDelay="43.00" arrival="80.00" arrivalLane="-S_2" arrivalPos="100.00" arrivalSpeed="15.06" duration="32.00" routeLength="394.90" waitingTime="0.00" waitingCount="0" stopTime="0.00" timeLoss="5.95" rerouteNo="1" devices="tripinfo_N-S-sedan.5 routing_N-S-sedan.5" vType="sedan" speedFactor="1.12" vaporized=""/>
    <tripinfo id="W-E-sedan.5" depart="48.00" departLane="+W_1" departPos="5.10" departSpeed="0.00" departDelay="43.00" arrival="81.00" arrivalLane="-E_1" arrivalPos="114.44" arrivalSpeed="13.04" duration="33.00" routeLength="394.89" waitingTime="0.00" waitingCount="0" stopTime="0.00" timeLoss="4.51" rerouteNo="1" devices="tripinfo_W-E-sedan.5 routing_W-E-sedan.5" vType="sedan" speedFactor="1.02" vaporized=""/>
    <tripinfo id="S-W-sedan.3" depart="33.00" departLane="+S_1" departPos="5.10" departSpeed="0.00" departDelay="30.00" arrival="82.00" arrivalLane="-W_1" arrivalPos="114.44" arrivalSpeed="13.46" duration="49.00" routeLength="426.51" waitingTime="3.00" waitingCount="1" stopTime="0.00" timeLoss="18.99" rerouteNo="1" devices="tripinfo_S-W-sedan.3 routing_S-W-sedan.3" vType="sedan" speedFactor="1.04" vaporized=""/>
    <tripinfo id="N-S-sedan.4" depart="39.00" departLane="+N_1" departPos="5.10" departSpeed="0.00" departDelay="35.00" arrival="82.00" arrivalLane="-S_1" arrivalPos="100.00" arrivalSpeed="10.57" duration="43.00" routeLength="394.90" waitingTime="0.00" waitingCount="0" stopTime="0.00" timeLoss="8.77" rerouteNo="1" devices="tripinfo_N-S-sedan.4 routing_N-S-sedan.4" vType="sedan" speedFactor="0.85" vaporized=""/>
    <tripinfo id="S-N-sedan.5" depart="45.00" departLane="+S_1" departPos="5.10" departSpeed="0.00" departDelay="40.00" arrival="82.00" arrivalLane="-N_2" arrivalPos="100.00" arrivalSpeed="12.00" duration="37.00" routeLength="394.90" waitingTime="0.00" waitingCount="0" stopTime="0.00" timeLoss="5.60" rerouteNo="1" devices="tripinfo_S-N-sedan.5 routing_S-N-sedan.5" vType="sedan" speedFactor="0.91" vaporized=""/>
    <tripinfo id="S-W-sedan.4" depart="42.00" departLane="+S_1" departPos="5.10" departSpeed="0.00" departDelay="38.00" arrival="86.00" arrivalLane="-W_1" arrivalPos="114.44" arrivalSpeed="11.83" duration="44.00" routeLength="426.51" waitingTime="0.00" waitingCount="0" stopTime="0.00" timeLoss="9.44" rerouteNo="1" devices="tripinfo_S-W-sedan.4 routing_S-W-sedan.4" vType="sedan" speedFactor="0.90" vaporized=""/>
    <tripinfo id="E-N-sedan.4" depart="36.00" departLane="+E_1" departPos="5.10" departSpeed="0.00" departDelay="32.00" arrival="87.00" arrivalLane="-N_1" arrivalPos="100.00" arrivalSpeed="15.77" duration="51.00" routeLength="376.51" waitingTime="15.00" waitingCount="1" stopTime="0.00" timeLoss="27.27" rerouteNo="1" devices="tripinfo_E-N-sedan.4 routing_E-N-sedan.4" vType="sedan" speedFactor="1.17" vaporized=""/>
    <tripinfo id="W-S-sedan.3" depart="33.00" departLane="+W_1" departPos="5.10" departSpeed="0.00" departDelay="30.00" arrival="88.00" arrivalLane="-S_1" arrivalPos="100.00" arrivalSpeed="12.32" duration="55.00" routeLength="376.51" waitingTime="16.00" waitingCount="1" stopTime="0.00" timeLoss="24.75" rerouteNo="1" devices="tripinfo_W-S-sedan.3 routing_W-S-sedan.3" vType="sedan" speedFactor="0.90" vaporized=""/>
    <tripinfo id="E-W-sedan.5" depart="52.00" departLane="+E_1" departPos="5.10" departSpeed="0.00" departDelay="47.00" arrival="89.00" arrivalLane="-W_1" arrivalPos="114.44" arrivalSpeed="11.51" duration="37.00" routeLength="394.89" waitingTime="0.00" waitingCount="0" stopTime="0.00" timeLoss="4.70" rerouteNo="1" devices="tripinfo_E-W-sedan.5 routing_E-W-sedan.5" vType="sedan" speedFactor="0.88" vaporized=""/>
    <tripinfo id="W-S-sedan.4" depart="42.00" departLane="+W_1" departPos="5.10" departSpeed="0.00" departDelay="38.00" arrival="90.00" arrivalLane="-S_1" arrivalPos="100.00" arrivalSpeed="12.70" duration="48.00" routeLength="376.51" waitingTime="8.00" waitingCount="1" stopTime="0.00" timeLoss="19.68" rerouteNo="1" devices="tripinfo_W-S-sedan.4 routing_W-S-sedan.4" vType="sedan" speedFactor="0.97" vaporized=""/>
    <tripinfo id="W-E-sedan.6" depart="57.00" departLane="+W_1" departPos="5.10" departSpeed="0.00" departDelay="51.00" arrival="90.00" arrivalLane="-E_1" arrivalPos="114.44" arrivalSpeed="13.49" duration="33.00" routeLength="394.89" waitingTime="0.00" waitingCount="0" stopTime="0.00" timeLoss="4.14" rerouteNo="1" devices="tripinfo_W-E-sedan.6 routing_W-E-sedan.6" vType="sedan" speedFactor="1.02" vaporized=""/>
    <tripinfo id="E-N-sedan.5" depart="45.00" departLane="+E_1" departPos="5.10" departSpeed="0.00" departDelay="40.00" arrival="91.00" arrivalLane="-N_1" arrivalPos="100.00" arrivalSpeed="12.90" duration="46.00" routeLength="376.51" waitingTime="6.00" waitingCount="1" stopTime="0.00" timeLoss="17.69" rerouteNo="1" devices="tripinfo_E-N-sedan.5 routing_E-N-sedan.5" vType="sedan" speedFactor="0.99" vaporized=""/>
    <tripinfo id="S-W-sedan.5" depart="51.00" departLane="+S_1" departPos="5.10" departSpeed="0.00" departDelay="46.00" arrival="92.00" arrivalLane="-W_1" arrivalPos="114.44" arrivalSpeed="13.44" duration="41.00" routeLength="426.51" waitingTime="0.00" waitingCount="0" stopTime="0.00" timeLoss="10.95" rerouteNo="1" devices="tripinfo_S-W-sedan.5 routing_S-W-sedan.5" vType="sedan" speedFactor="1.04" vaporized=""/>
    <tripinfo id="W-S-sedan.5" depart="51.00" departLane="+W_1" departPos="5.10" departSpeed="0.00" departDelay="46.00" arrival="92.00" arrivalLane="-S_1" arrivalPos="100.00" arrivalSpeed="12.94" duration="41.00" routeLength="376.51" waitingTime="2.00" waitingCount="1" stopTime="0.00" timeLoss="12.53" rerouteNo="1" devices="tripinfo_W-S-sedan.5 routing_W-S-sedan.5" vType="sedan" speedFactor="0.97" vaporized=""/>
    <tripinfo id="E-N-sedan.6" depart="55.00" departLane="+E_1" departPos="5.10" departSpeed="0.00" departDelay="49.00" arrival="92.00" arrivalLane="-N_1" arrivalPos="100.00" arrivalSpeed="13.16" duration="37.00" routeLength="376.51" waitingTime="0.00" waitingCount="0" stopTime="0.00" timeLoss="9.36" rerouteNo="1" devices="tripinfo_E-N-sedan.6 routing_E-N-sedan.6" vType="sedan" speedFactor="0.98" vaporized=""/>
    <tripinfo id="W-S-sedan.6" depart="60.00" departLane="+W_1" departPos="5.10" departSpeed="0.00" departDelay="54.00" arrival="94.00" arrivalLane="-S_1" arrivalPos="100.00" arrivalSpeed="12.86" duration="34.00" routeLength="376.51" waitingTime="0.00" waitingCount="0" stopTime="0.00" timeLoss="5.20" rerouteNo="1" devices="tripinfo_W-S-sedan.6 routing_W-S-sedan.6" vType="sedan" speedFactor="0.97" vaporized=""/>
    <tripinfo id="E-W-sedan.6" depart="61.00" departLane="+E_1" departPos="5.10" departSpeed="0.00" departDelay="55.00" arrival="95.00" arrivalLane="-W_1" arrivalPos="114.44" arrivalSpeed="12.84" duration="34.00" routeLength="394.89" waitingTime="0.00" waitingCount="0" stopTime="0.00" timeLoss="4.64" rerouteNo="1" devices="tripinfo_E-W-sedan.6 routing_E-W-sedan.6" vType="sedan" speedFactor="0.98" vaporized=""/>
    <tripinfo id="E-N-sedan.7" depart="64.00" departLane="+E_1" departPos="5.10" departSpeed="0.00" departDelay="57.00" arrival="95.00" arrivalLane="-N_1" arrivalPos="100.00" arrivalSpeed="13.41" duration="31.00" routeLength="376.51" waitingTime="0.00" waitingCount="0" stopTime="0.00" timeLoss="4.36" rerouteNo="1" devices="tripinfo_E-N-sedan.7 routing_E-N-sedan.7" vType="sedan" speedFactor="1.04" vaporized=""/>
    <tripinfo id="W-E-sedan.7" depart="66.00" departLane="+W_1" departPos="5.10" departSpeed="0.00" departDelay="59.00" arrival="97.00" arrivalLane="-E_1" arrivalPos="114.44" arrivalSpeed="14.62" duration="31.00" routeLength="394.89" waitingTime="0.00" waitingCount="0" stopTime="0.00" timeLoss="4.93" rerouteNo="1" devices="tripinfo_W-E-sedan.7 routing_W-E-sedan.7" vType="sedan" speedFactor="1.09" vaporized=""/>
    <tripinfo id="W-S-sedan.7" depart="69.00" departLane="+W_1" departPos="5.10" departSpeed="0.00" departDelay="62.00" arrival="99.00" arrivalLane="-S_1" arrivalPos="100.00" arrivalSpeed="13.66" duration="30.00" routeLength="376.51" waitingTime="0.00" waitingCount="0" stopTime="0.00" timeLoss="4.23" rerouteNo="1" devices="tripinfo_W-S-sedan.7 routing_W-S-sedan.7" vType="sedan" speedFactor="1.06" vaporized=""/>
    <tripinfo id="N-E-sedan.2" depart="18.00" departLane="+N_1" departPos="5.10" departSpeed="0.00" departDelay="16.00" arrival="103.00" arrivalLane="-E_1" arrivalPos="114.44" arrivalSpeed="10.17" duration="85.00" routeLength="426.51" waitingTime="30.00" waitingCount="2" stopTime="0.00" timeLoss="47.66" rerouteNo="1" devices="tripinfo_N-E-sedan.2 routing_N-E-sedan.2" vType="sedan" speedFactor="0.83" vaporized=""/>
    <tripinfo id="E-W-sedan.7" depart="70.00" departLane="+E_1" departPos="5.10" departSpeed="0.00" departDelay="63.00" arrival="103.00" arrivalLane="-W_1" arrivalPos="114.44" arrivalSpeed="13.27" duration="33.00" routeLength="394.89" waitingTime="0.00" waitingCount="0" stopTime="0.00" timeLoss="4.69" rerouteNo="1" devices="tripinfo_E-W-sedan.7 routing_E-W-sedan.7" vType="sedan" speedFactor="1.02" vaporized=""/>
    <tripinfo id="E-N-sedan.8" depart="73.00" departLane="+E_1" departPos="5.10" departSpeed="0.00" departDelay="65.00" arrival="103.00" arrivalLane="-N_1" arrivalPos="100.00" arrivalSpeed="15.07" duration="30.00" routeLength="376.51" waitingTime="0.00" waitingCount="0" stopTime="0.00" timeLoss="4.38" rerouteNo="1" devices="tripinfo_E-N-sedan.8 routing_E-N-sedan.8" vType="sedan" speedFactor="1.10" vaporized=""/>
    <tripinfo id="N-E-sedan.3" depart="27.00" departLane="+N_1" departPos="5.10" departSpeed="0.00" departDelay="24.00" arrival="105.00" arrivalLane="-E_1" arrivalPos="114.44" arrivalSpeed="12.49" duration="78.00" routeLength="426.51" waitingTime="24.00" waitingCount="2" stopTime="0.00" timeLoss="45.87" rerouteNo="1" devices="tripinfo_N-E-sedan.3 routing_N-E-sedan.3" vType="sedan" speedFactor="0.97" vaporized=""/>
    <tripinfo id="W-E-sedan.8" depart="75.00" departLane="+W_1" departPos="5.10" departSpeed="0.00" departDelay="67.00" arrival="108.00" arrivalLane="-E_1" arrivalPos="114.44" arrivalSpeed="13.95" duration="33.00" routeLength="394.89" waitingTime="0.00" waitingCount="0" stopTime="0.00" timeLoss="4.93" rerouteNo="1" devices="tripinfo_W-E-sedan.8 routing_W-E-sedan.8" vType="sedan" speedFactor="1.01" vaporized=""/>
    <tripinfo id="W-S-sedan.8" depart="78.00" departLane="+W_1" departPos="5.10" departSpeed="0.00" departDelay="70.00" arrival="109.00" arrivalLane="-S_1" arrivalPos="100.00" arrivalSpeed="13.08" duration="31.00" routeLength="376.51" waitingTime="0.00" waitingCount="0" stopTime="0.00" timeLoss="4.72" rerouteNo="1" devices="tripinfo_W-S-sedan.8 routing_W-S-sedan.8" vType="sedan" speedFactor="1.03" vaporized=""/>
    <tripinfo id="E-W-sedan.8" depart="79.00" departLane="+E_1" departPos="5.10" departSpeed="0.00" departDelay="71.00" arrival="113.00" arrivalLane="-W_1" arrivalPos="114.44" arrivalSpeed="12.83" duration="34.00" routeLength="394.89" waitingTime="0.00" waitingCount="0" stopTime="0.00" timeLoss="4.09" rerouteNo="1" devices="tripinfo_E-W-sedan.8 routing_E-W-sedan.8" vType="sedan" speedFactor="0.96" vaporized=""/>
    <tripinfo id="W-N-sedan.4" depart="36.00" departLane="+W_1" departPos="5.10" departSpeed="0.00" departDelay="32.00" arrival="114.00" arrivalLane="-N_1" arrivalPos="100.00" arrivalSpeed="15.70" duration="78.00" routeLength="426.51" waitingTime="33.00" waitingCount="2" stopTime="0.00" timeLoss="50.90" rerouteNo="1" devices="tripinfo_W-N-sedan.4 routing_W-N-sedan.4" vType="sedan" speedFactor="1.14" vaporized=""/>
    <tripinfo id="E-S-sedan.3" depart="30.00" departLane="+E_1" departPos="5.10" departSpeed="0.00" departDelay="27.00" arrival="115.00" arrivalLane="-S_1" arrivalPos="100.00" arrivalSpeed="13.75" duration="85.00" routeLength="426.51" waitingTime="39.00" waitingCount="2" stopTime="0.00" timeLoss="55.15" rerouteNo="1" devices="tripinfo_E-S-sedan.3 routing_E-S-sedan.3" vType="sedan" speedFactor="1.03" vaporized=""/>