<?xml version="1.0" encoding="UTF-8"?>

<!-- generated on 2023-04-18 12:25:10 by Eclipse SUMO GUI Version 1.15.0
<configuration xmlns:xsi="http://www.w3.org/2001/XMLSchema-instance" xsi:noNamespaceSchemaLocation="http://sumo.dlr.de/xsd/sumoConfiguration.xsd">

    <input>
        <net-file value="Simulations\superstreet.net.xml"/>
        <route-files value="Simulations\unifiedDistribution.rou.xml"/>
    </input>

    <output>
        <tripinfo-output value="Simulations\output\superstreet\superstreetTripinfo3.xml"/>
        <collision-output value="Simulations\output\superstreet\superstreetCollision3.xml"/>
        <statistic-output value="Simulations\output\superstreet\superstreetNetworkStats3.xml"/>
    </output>

</configuration>
-->

<tripinfos xmlns:xsi="http://www.w3.org/2001/XMLSchema-instance" xsi:noNamespaceSchemaLocation="http://sumo.dlr.de/xsd/tripinfo_file.xsd">
    <tripinfo id="E-N-sedan.0" depart="0.00" departLane="+E_1" departPos="5.10" departSpeed="0.00" departDelay="0.00" arrival="31.00" arrivalLane="-N_1" arrivalPos="100.00" arrivalSpeed="14.73" duration="31.00" routeLength="359.44" waitingTime="0.00" waitingCount="0" stopTime="0.00" timeLoss="6.48" rerouteNo="1" devices="tripinfo_E-N-sedan.0 routing_E-N-sedan.0" vType="sedan" speedFactor="1.08" vaporized=""/>
    <tripinfo id="S-E-sedan.0" depart="3.00" departLane="+S_1" departPos="5.10" departSpeed="0.00" departDelay="3.00" arrival="38.00" arrivalLane="-E_1" arrivalPos="100.00" arrivalSpeed="11.35" duration="35.00" routeLength="371.33" waitingTime="0.00" waitingCount="0" stopTime="0.00" timeLoss="4.83" rerouteNo="1" devices="tripinfo_S-E-sedan.0 routing_S-E-sedan.0" vType="sedan" speedFactor="0.89" vaporized=""/>
    <tripinfo id="S-E-sedan.1" depart="12.00" departLane="+S_1" departPos="5.10" departSpeed="0.00" departDelay="11.00" arrival="38.00" arrivalLane="-E_2" arrivalPos="100.00" arrivalSpeed="14.92" duration="26.00" routeLength="371.33" waitingTime="0.00" waitingCount="0" stopTime="0.00" timeLoss="5.07" rerouteNo="1" devices="tripinfo_S-E-sedan.1 routing_S-E-sedan.1" vType="sedan" speedFactor="1.16" vaporized=""/>
    <tripinfo id="N-W-sedan.0" depart="6.00" departLane="+N_1" departPos="5.10" departSpeed="0.00" departDelay="6.00" arrival="40.00" arrivalLane="-W_1" arrivalPos="100.00" arrivalSpeed="12.82" duration="34.00" routeLength="371.33" waitingTime="0.00" waitingCount="0" stopTime="0.00" timeLoss="6.91" rerouteNo="1" devices="tripinfo_N-W-sedan.0 routing_N-W-sedan.0" vType="sedan" speedFactor="1.01" vaporized=""/>
    <tripinfo id="N-E-sedan.0" depart="0.00" departLane="+N_1" departPos="5.10" departSpeed="0.00" departDelay="0.00" arrival="42.00" arrivalLane="-E_1" arrivalPos="100.00" arrivalSpeed="13.70" duration="42.00" routeLength="539.01" waitingTime="0.00" waitingCount="0" stopTime="0.00" timeLoss="4.52" rerouteNo="1" devices="tripinfo_N-E-sedan.0 routing_N-E-sedan.0" vType="sedan" speedFactor="1.06" vaporized=""/>
    <tripinfo id="N-W-sedan.1" depart="15.00" departLane="+N_1" departPos="5.10" departSpeed="0.00" departDelay="14.00" arrival="44.00" arrivalLane="-W_1" arrivalPos="100.00" arrivalSpeed="12.84" duration="29.00" routeLength="371.33" waitingTime="0.00" waitingCount="0" stopTime="0.00" timeLoss="5.02" rerouteNo="1" devices="tripinfo_N-W-sedan.1 routing_N-W-sedan.1" vType="sedan" speedFactor="0.99" vaporized=""/>
    <tripinfo id="E-S-sedan.0" depart="3.00" departLane="+E_1" departPos="5.10" departSpeed="0.00" departDelay="3.00" arrival="46.00" arrivalLane="-S_1" arrivalPos="100.00" arrivalSpeed="13.21" duration="43.00" routeLength="392.83" waitingTime="6.00" waitingCount="1" stopTime="0.00" timeLoss="15.49" rerouteNo="1" devices="tripinfo_E-S-sedan.0 routing_E-S-sedan.0" vType="sedan" speedFactor="1.03" vaporized=""/>
    <tripinfo id="S-N-sedan.0" depart="0.00" departLane="+S_1" departPos="5.10" departSpeed="0.00" departDelay="0.00" arrival="46.00" arrivalLane="-N_1" arrivalPos="100.00" arrivalSpeed="14.15" duration="46.00" routeLength="487.89" waitingTime="1.00" waitingCount="1" stopTime="0.00" timeLoss="12.07" rerouteNo="1" devices="tripinfo_S-N-sedan.0 routing_S-N-sedan.0" vType="sedan" speedFactor="1.05" vaporized=""/>
    <tripinfo id="W-S-sedan.0" depart="6.00" departLane="+W_1" departPos="5.10" departSpeed="0.00" departDelay="6.00" arrival="49.00" arrivalLane="-S_1" arrivalPos="100.00" arrivalSpeed="13.84" duration="43.00" routeLength="359.44" waitingTime="4.00" waitingCount="1" stopTime="0.00" timeLoss="17.45" rerouteNo="1" devices="tripinfo_W-S-sedan.0 routing_W-S-sedan.0" vType="sedan" speedFactor="1.03" vaporized=""/>
    <tripinfo id="E-W-sedan.0" depart="6.00" departLane="+E_1" departPos="5.10" departSpeed="0.00" departDelay="6.00" arrival="50.00" arrivalLane="-W_1" arrivalPos="100.00" arrivalSpeed="10.43" duration="44.00" routeLength="410.56" waitingTime="0.00" waitingCount="0" stopTime="0.00" timeLoss="8.18" rerouteNo="1" devices="tripinfo_E-W-sedan.0 routing_E-W-sedan.0" vType="sedan" speedFactor="0.83" vaporized=""/>
    <tripinfo id="S-E-sedan.2" depart="21.00" departLane="+S_1" departPos="5.10" departSpeed="0.00" departDelay="19.00" arrival="51.00" arrivalLane="-E_1" arrivalPos="100.00" arrivalSpeed="15.00" duration="30.00" routeLength="371.33" waitingTime="0.00" waitingCount="0" stopTime="0.00" timeLoss="6.84" rerouteNo="1" devices="tripinfo_S-E-sedan.2 routing_S-E-sedan.2" vType="sedan" speedFactor="1.15" vaporized=""/>
    <tripinfo id="W-S-sedan.1" depart="15.00" departLane="+W_1" departPos="5.10" departSpeed="0.00" departDelay="14.00" arrival="55.00" arrivalLane="-S_1" arrivalPos="100.00" arrivalSpeed="12.14" duration="40.00" routeLength="359.44" waitingTime="0.00" waitingCount="0" stopTime="0.00" timeLoss="10.16" rerouteNo="1" devices="tripinfo_W-S-sedan.1 routing_W-S-sedan.1" vType="sedan" speedFactor="0.89" vaporized=""/>
    <tripinfo id="W-S-sedan.2" depart="24.00" departLane="+W_1" departPos="5.10" departSpeed="0.00" departDelay="22.00" arrival="56.00" arrivalLane="-S_1" arrivalPos="100.00" arrivalSpeed="13.66" duration="32.00" routeLength="359.44" waitingTime="0.00" waitingCount="0" stopTime="0.00" timeLoss="6.56" rerouteNo="1" devices="tripinfo_W-S-sedan.2 routing_W-S-sedan.2" vType="sedan" speedFactor="1.02" vaporized=""/>
    <tripinfo id="N-W-sedan.2" depart="24.00" departLane="+N_1" departPos="5.10" departSpeed="0.00" departDelay="22.00" arrival="59.00" arrivalLane="-W_1" arrivalPos="100.00" arrivalSpeed="12.04" duration="35.00" routeLength="371.33" waitingTime="0.00" waitingCount="0" stopTime="0.00" timeLoss="5.40" rerouteNo="1" devices="tripinfo_N-W-sedan.2 routing_N-W-sedan.2" vType="sedan" speedFactor="0.92" vaporized=""/>
    <tripinfo id="W-N-sedan.1" depart="9.00" departLane="+W_1" departPos="5.10" departSpeed="0.00" departDelay="8.00" arrival="61.00" arrivalLane="-N_1" arrivalPos="100.00" arrivalSpeed="13.99" duration="52.00" routeLength="392.83" waitingTime="7.00" waitingCount="2" stopTime="0.00" timeLoss="24.01" rerouteNo="1" devices="tripinfo_W-N-sedan.1 routing_W-N-sedan.1" vType="sedan" speedFactor="1.01" vaporized=""/>
    <tripinfo id="S-E-sedan.3" depart="30.00" departLane="+S_1" departPos="5.10" departSpeed="0.00" departDelay="27.00" arrival="61.00" arrivalLane="-E_1" arrivalPos="100.00" arrivalSpeed="13.85" duration="31.00" routeLength="371.33" waitingTime="0.00" waitingCount="0" stopTime="0.00" timeLoss="5.23" rerouteNo="1" devices="tripinfo_S-E-sedan.3 routing_S-E-sedan.3" vType="sedan" speedFactor="1.04" vaporized=""/>
    <tripinfo id="N-W-sedan.3" depart="33.00" departLane="+N_1" departPos="5.10" departSpeed="0.00" departDelay="30.00" arrival="62.00" arrivalLane="-W_1" arrivalPos="100.00" arrivalSpeed="14.16" duration="29.00" routeLength="371.33" waitingTime="0.00" waitingCount="0" stopTime="0.00" timeLoss="4.24" rerouteNo="1" devices="tripinfo_N-W-sedan.3 routing_N-W-sedan.3" vType="sedan" speedFactor="1.10" vaporized=""/>
    <tripinfo id="W-N-sedan.2" depart="18.00" departLane="+W_1" departPos="5.10" departSpeed="0.00" departDelay="16.00" arrival="63.00" arrivalLane="-N_2" arrivalPos="100.00" arrivalSpeed="15.96" duration="45.00" routeLength="392.83" waitingTime="5.00" waitingCount="1" stopTime="0.00" timeLoss="20.65" rerouteNo="1" devices="tripinfo_W-N-sedan.2 routing_W-N-sedan.2" vType="sedan" speedFactor="1.17" vaporized=""/>
    <tripinfo id="W-N-sedan.0" depart="0.00" departLane="+W_1" departPos="5.10" departSpeed="0.00" departDelay="0.00" arrival="64.00" arrivalLane="-N_1" arrivalPos="100.00" arrivalSpeed="11.46" duration="64.00" routeLength="392.83" waitingTime="14.00" waitingCount="2" stopTime="0.00" timeLoss="30.46" rerouteNo="1" devices="tripinfo_W-N-sedan.0 routing_W-N-sedan.0" vType="sedan" speedFactor="0.86" vaporized=""/>
    <tripinfo id="W-N-sedan.3" depart="27.00" departLane="+W_1" departPos="5.10" departSpeed="0.00" departDelay="24.00" arrival="65.00" arrivalLane="-N_2" arrivalPos="100.00" arrivalSpeed="14.60" duration="38.00" routeLength="392.83" waitingTime="0.00" waitingCount="0" stopTime="0.00" timeLoss="12.00" rerouteNo="1" devices="tripinfo_W-N-sedan.3 routing_W-N-sedan.3" vType="sedan" speedFactor="1.09" vaporized=""/>
    <tripinfo id="W-S-sedan.3" depart="33.00" departLane="+W_1" departPos="5.10" departSpeed="0.00" departDelay="30.00" arrival="67.00" arrivalLane="-S_1" arrivalPos="100.00" arrivalSpeed="12.26" duration="34.00" routeLength="359.44" waitingTime="0.00" waitingCount="0" stopTime="0.00" timeLoss="4.89" rerouteNo="1" devices="tripinfo_W-S-sedan.3 routing_W-S-sedan.3" vType="sedan" speedFactor="0.90" vaporized=""/>
    <tripinfo id="E-N-sedan.1" depart="9.00" departLane="+E_1" departPos="5.10" departSpeed="0.00" departDelay="8.00" arrival="73.00" arrivalLane="-N_1" arrivalPos="100.00" arrivalSpeed="11.79" duration="64.00" routeLength="359.44" waitingTime="24.00" waitingCount="1" stopTime="0.00" timeLoss="36.00" rerouteNo="1" devices="tripinfo_E-N-sedan.1 routing_E-N-sedan.1" vType="sedan" speedFactor="0.93" vaporized=""/>
    <tripinfo id="S-E-sedan.4" depart="40.00" departLane="+S_1" departPos="5.10" departSpeed="0.00" departDelay="36.00" arrival="73.00" arrivalLane="-E_1" arrivalPos="100.00" arrivalSpeed="13.01" duration="33.00" routeLength="371.33" waitingTime="0.00" waitingCount="0" stopTime="0.00" timeLoss="5.60" rerouteNo="1" devices="tripinfo_S-E-sedan.4 routing_S-E-sedan.4" vType="sedan" speedFactor="1.00" vaporized=""/>
    <tripinfo id="E-S-sedan.1" depart="12.00" departLane="+E_1" departPos="5.10" departSpeed="0.00" departDelay="11.00" arrival="76.00" arrivalLane="-S_2" arrivalPos="100.00" arrivalSpeed="12.17" duration="64.00" routeLength="392.83" waitingTime="22.00" waitingCount="1" stopTime="0.00" timeLoss="31.63" rerouteNo="1" devices="tripinfo_E-S-sedan.1 routing_E-S-sedan.1" vType="sedan" speedFactor="0.88" vaporized=""/>
    <tripinfo id="E-N-sedan.2" depart="18.00" departLane="+E_1" departPos="5.10" departSpeed="0.00" departDelay="16.00" arrival="76.00" arrivalLane="-N_1" arrivalPos="100.00" arrivalSpeed="12.12" duration="58.00" routeLength="359.44" waitingTime="19.00" waitingCount="1" stopTime="0.00" timeLoss="30.29" rerouteNo="1" devices="tripinfo_E-N-sedan.2 routing_E-N-sedan.2" vType="sedan" speedFactor="0.95" vaporized=""/>
    <tripinfo id="E-S-sedan.2" depart="21.00" departLane="+E_1" departPos="5.10" departSpeed="0.00" departDelay="19.00" arrival="78.00" arrivalLane="-S_2" arrivalPos="100.00" arrivalSpeed="14.76" duration="57.00" routeLength="392.83" waitingTime="15.00" waitingCount="1" stopTime="0.00" timeLoss="31.41" rerouteNo="1" devices="tripinfo_E-S-sedan.2 routing_E-S-sedan.2" vType="sedan" speedFactor="1.13" vaporized=""/>
    <tripinfo id="N-W-sedan.4" depart="42.00" departLane="+N_1" departPos="5.10" departSpeed="0.00" departDelay="38.00" arrival="79.00" arrivalLane="-W_1" arrivalPos="100.00" arrivalSpeed="10.80" duration="37.00" routeLength="371.33" waitingTime="0.00" waitingCount="0" stopTime="0.00" timeLoss="5.37" rerouteNo="1" devices="tripinfo_N-W-sedan.4 routing_N-W-sedan.4" vType="sedan" speedFactor="0.85" vaporized=""/>
    <tripinfo id="E-N-sedan.3" depart="27.00" departLane="+E_1" departPos="5.10" departSpeed="0.00" departDelay="24.00" arrival="80.00" arrivalLane="-N_1" arrivalPos="100.00" arrivalSpeed="12.16" duration="53.00" routeLength="359.44" waitingTime="12.00" waitingCount="1" stopTime="0.00" timeLoss="23.91" rerouteNo="1" devices="tripinfo_E-N-sedan.3 routing_E-N-sedan.3" vType="sedan" speedFactor="0.90" vaporized=""/>
    <tripinfo id="E-S-sedan.3" depart="30.00" departLane="+E_1" departPos="5.10" departSpeed="0.00" departDelay="27.00" arrival="80.00" arrivalLane="-S_2" arrivalPos="100.00" arrivalSpeed="13.15" duration="50.00" routeLength="392.83" waitingTime="8.00" waitingCount="1" stopTime="0.00" timeLoss="21.74" rerouteNo="1" devices="tripinfo_E-S-sedan.3 routing_E-S-sedan.3" vType="sedan" speedFactor="1.03" vaporized=""/>
    <tripinfo id="E-S-sedan.4" depart="39.00" departLane="+E_1" departPos="5.10" departSpeed="0.00" departDelay="35.00" arrival="81.00" arrivalLane="-S_2" arrivalPos="100.00" arrivalSpeed="13.11" duration="42.00" routeLength="392.83" waitingTime="0.00" waitingCount="0" stopTime="0.00" timeLoss="14.06" rerouteNo="1" devices="tripinfo_E-S-sedan.4 routing_E-S-sedan.4" vType="sedan" speedFactor="1.02" vaporized=""/>
    <tripinfo id="E-N-sedan.4" depart="36.00" departLane="+E_1" departPos="5.10" departSpeed="0.00" departDelay="32.00" arrival="82.00" arrivalLane="-N_1" arrivalPos="100.00" arrivalSpeed="16.01" duration="46.00" routeLength="359.44" waitingTime="7.00" waitingCount="1" stopTime="0.00" timeLoss="23.15" rerouteNo="1" devices="tripinfo_E-N-sedan.4 routing_E-N-sedan.4" vType="sedan" speedFactor="1.17" vaporized=""/>
    <tripinfo id="E-S-sedan.5" depart="48.00" departLane="+E_1" departPos="5.10" departSpeed="0.00" departDelay="43.00" arrival="83.00" arrivalLane="-S_2" arrivalPos="100.00" arrivalSpeed="12.62" duration="35.00" routeLength="392.83" waitingTime="0.00" waitingCount="0" stopTime="0.00" timeLoss="4.66" rerouteNo="1" devices="tripinfo_E-S-sedan.5 routing_E-S-sedan.5" vType="sedan" speedFactor="0.94" vaporized=""/>
    <tripinfo id="N-W-sedan.5" depart="51.00" departLane="+N_1" departPos="5.10" departSpeed="0.00" departDelay="46.00" arrival="84.00" arrivalLane="-W_1" arrivalPos="100.00" arrivalSpeed="13.26" duration="33.00" routeLength="371.33" waitingTime="0.00" waitingCount="0" stopTime="0.00" timeLoss="5.92" rerouteNo="1" devices="tripinfo_N-W-sedan.5 routing_N-W-sedan.5" vType="sedan" speedFactor="1.02" vaporized=""/>
    <tripinfo id="S-E-sedan.5" depart="49.00" departLane="+S_1" departPos="5.10" departSpeed="0.00" departDelay="44.00" arrival="84.00" arrivalLane="-E_1" arrivalPos="100.00" arrivalSpeed="12.41" duration="35.00" routeLength="371.33" waitingTime="0.00" waitingCount="0" stopTime="0.00" timeLoss="5.19" rerouteNo="1" devices="tripinfo_S-E-sedan.5 routing_S-E-sedan.5" vType="sedan" speedFactor="0.91" vaporized=""/>
    <tripinfo id="N-S-sedan.0" depart="3.00" departLane="+N_1" departPos="5.10" departSpeed="0.00" departDelay="3.00" arrival="86.00" arrivalLane="-S_1" arrivalPos="100.00" arrivalSpeed="12.84" duration="83.00" routeLength="487.89" waitingTime="33.00" waitingCount="1" stopTime="0.00" timeLoss="44.94" rerouteNo="1" devices="tripinfo_N-S-sedan.0 routing_N-S-sedan.0" vType="sedan" speedFactor="0.94" vaporized=""/>
    <tripinfo id="E-N-sedan.5" depart="45.00" departLane="+E_1" departPos="5.10" departSpeed="0.00" departDelay="40.00" arrival="86.00" arrivalLane="-N_1" arrivalPos="100.00" arrivalSpeed="12.81" duration="41.00" routeLength="359.44" waitingTime="2.00" waitingCount="1" stopTime="0.00" timeLoss="14.75" rerouteNo="1" devices="tripinfo_E-N-sedan.5 routing_E-N-sedan.5" vType="sedan" speedFactor="0.99" vaporized=""/>
    <tripinfo id="S-E-sedan.6" depart="57.00" departLane="+S_1" departPos="5.10" departSpeed="0.00" departDelay="51.00" arrival="86.00" arrivalLane="-E_1" arrivalPos="100.00" arrivalSpeed="14.73" duration="29.00" routeLength="371.33" waitingTime="0.00" waitingCount="0" stopTime="0.00" timeLoss="4.27" rerouteNo="1" devices="tripinfo_S-E-sedan.6 routing_S-E-sedan.6" vType="sedan" speedFactor="1.09" vaporized=""/>
    <tripinfo id="N-S-sedan.1" depart="12.00" departLane="+N_1" departPos="5.10" departSpeed="0.00" departDelay="11.00" arrival="89.00" arrivalLane="-S_1" arrivalPos="100.00" arrivalSpeed="14.95" duration="77.00" routeLength="487.89" waitingTime="30.00" waitingCount="1" stopTime="0.00" timeLoss="45.04" rerouteNo="1" devices="tripinfo_N-S-sedan.1 routing_N-S-sedan.1" vType="sedan" speedFactor="1.12" vaporized=""/>
    <tripinfo id="E-N-sedan.6" depart="54.00" departLane="+E_1" departPos="5.10" departSpeed="0.00" departDelay="48.00" arrival="90.00" arrivalLane="-N_1" arrivalPos="100.00" arrivalSpeed="12.46" duration="36.00" routeLength="359.44" waitingTime="0.00" waitingCount="0" stopTime="0.00" timeLoss="9.43" rerouteNo="1" devices="tripinfo_E-N-sedan.6 routing_E-N-sedan.6" vType="sedan" speedFactor="0.98" vaporized=""/>
    <tripinfo id="N-W-sedan.6" depart="60.00" departLane="+N_1" departPos="5.10" departSpeed="0.00" departDelay="54.00" arrival="93.00" arrivalLane="-W_1" arrivalPos="100.00" arrivalSpeed="12.87" duration="33.00" routeLength="371.33" waitingTime="0.00" waitingCount="0" stopTime="0.00" timeLoss="4.21" rerouteNo="1" devices="tripinfo_N-W-sedan.6 routing_N-W-sedan.6" vType="sedan" speedFactor="0.96" vaporized=""/>
    <tripinfo id="W-N-sedan.4" depart="36.00" departLane="+W_1" departPos="5.10" departSpeed="0.00" departDelay="32.00" arrival="96.00" arrivalLane="-N_2" arrivalPos="100.00" arrivalSpeed="14.74" duration="60.00" routeLength="392.83" waitingTime="25.00" waitingCount="1" stopTime="0.00" timeLoss="34.36" rerouteNo="1" devices="tripinfo_W-N-sedan.4 routing_W-N-sedan.4" vType="sedan" speedFactor="1.14" vaporized=""/>
    <tripinfo id="W-S-sedan.4" depart="42.00" departLane="+W_1" departPos="5.10" departSpeed="0.00" departDelay="38.00" arrival="98.00" arrivalLane="-S_1" arrivalPos="100.00" arrivalSpeed="13.05" duration="56.00" routeLength="359.44" waitingTime="17.00" waitingCount="1" stopTime="0.00" timeLoss="29.29" rerouteNo="1" devices="tripinfo_W-S-sedan.4 routing_W-S-sedan.4" vType="sedan" speedFactor="0.97" vaporized=""/>
    <tripinfo id="W-N-sedan.5" depart="45.00" departLane="+W_1" departPos="5.10" departSpeed="0.00" departDelay="40.00" arrival="100.00" arrivalLane="-N_2" arrivalPos="100.00" arrivalSpeed="13.31" duration="55.00" routeLength="392.83" waitingTime="16.00" waitingCount="1" stopTime="0.00" timeLoss="26.86" rerouteNo="1" devices="tripinfo_W-N-sedan.5 routing_W-N-sedan.5" vType="sedan" speedFactor="1.02" vaporized=""/>
    <tripinfo id="N-W-sedan.7" depart="69.00" departLane="+N_1" departPos="5.10" departSpeed="0.00" departDelay="62.00" arrival="100.00" arrivalLane="-W_1" arrivalPos="100.00" arrivalSpeed="13.10" duration="31.00" routeLength="371.33" waitingTime="0.00" waitingCount="0" stopTime="0.00" timeLoss="4.03" rerouteNo="1" devices="tripinfo_N-W-sedan.7 routing_N-W-sedan.7" vType="sedan" speedFactor="1.00" vaporized=""/>
    <tripinfo id="S-E-sedan.7" depart="66.00" departLane="+S_1" departPos="5.10" departSpeed="0.00" departDelay="59.00" arrival="101.00" arrivalLane="-E_1" arrivalPos="100.00" arrivalSpeed="11.64" duration="35.00" routeLength="371.33" waitingTime="0.00" waitingCount="0" stopTime="0.00" timeLoss="4.67" rerouteNo="1" devices="tripinfo_S-E-sedan.7 routing_S-E-sedan.7" vType="sedan" speedFactor="0.89" vaporized=""/>
    <tripinfo id="S-N-sedan.1" depart="9.00" departLane="+S_1" departPos="5.10" departSpeed="0.00" departDelay="8.00" arrival="102.00" arrivalLane="-N_1" arrivalPos="100.00" arrivalSpeed="12.23" duration="93.00" routeLength="487.89" waitingTime="37.00" waitingCount="3" stopTime="0.00" timeLoss="54.70" rerouteNo="1" devices="tripinfo_S-N-sedan.1 routing_S-N-sedan.1" vType="sedan" speedFactor="0.94" vaporized=""/>
    <tripinfo id="W-S-sedan.5" depart="50.00" departLane="+W_1" departPos="5.10" departSpeed="0.00" departDelay="45.00" arrival="102.00" arrivalLane="-S_1" arrivalPos="100.00" arrivalSpeed="12.93" duration="52.00" routeLength="359.44" waitingTime="14.00" waitingCount="1" stopTime="0.00" timeLoss="25.03" rerouteNo="1" devices="tripinfo_W-S-sedan.5 routing_W-S-sedan.5" vType="sedan" speedFactor="0.97" vaporized=""/>
    <tripinfo id="S-N-sedan.2" depart="18.00" departLane="+S_1" departPos="5.10" departSpeed="0.00" departDelay="16.00" arrival="106.00" arrivalLane="-N_1" arrivalPos="100.00" arrivalSpeed="15.55" duration="88.00" routeLength="487.89" waitingTime="30.00" waitingCount="2" stopTime="0.00" timeLoss="58.12" rerouteNo="1" devices="tripinfo_S-N-sedan.2 routing_S-N-sedan.2" vType="sedan" speedFactor="1.18" vaporized=""/>
    <tripinfo id="E-S-sedan.6" depart="57.00" departLane="+E_1" departPos="5.10" departSpeed="0.00" departDelay="51.00" arrival="107.00" arrivalLane="-S_1" arrivalPos="100.00" arrivalSpeed="14.27" duration="50.00" routeLength="392.83" waitingTime="13.00" waitingCount="1" stopTime="0.00" timeLoss="21.73" rerouteNo="1" devices="tripinfo_E-S-sedan.6 routing_E-S-sedan.6" vType="sedan" speedFactor="1.03" vaporized=""/>
    <tripinfo id="E-W-sedan.3" depart="33.00" departLane="+E_1" departPos="5.10" departSpeed="0.00" departDelay="30.00" arrival="108.00" arrivalLane="-W_1" arrivalPos="100.00" arrivalSpeed="12.61" duration="75.00" routeLength="410.56" waitingTime="33.00" waitingCount="2" stopTime="0.00" timeLoss="48.11" rerouteNo="1" devices="tripinfo_E-W-sedan.3 routing_E-W-sedan.3" vType="sedan" speedFactor="0.96" vaporized=""/>
    <tripinfo id="S-E-sedan.8" depart="75.00" departLane="+S_1" departPos="5.10" departSpeed="0.00" departDelay="67.00" arrival="108.00" arrivalLane="-E_1" arrivalPos="100.00" arrivalSpeed="13.01" duration="33.00" routeLength="371.33" waitingTime="0.00" waitingCount="0" stopTime="0.00" timeLoss="4.59" rerouteNo="1" devices="tripinfo_S-E-sedan.8 routing_S-E-sedan.8" vType="sedan" speedFactor="0.95" vaporized=""/>
    <tripinfo id="W-E-sedan.0" depart="3.00" departLane="+W_1" departPos="5.10" departSpeed="0.00" departDelay="3.00" arrival="111.00" arrivalLane="-E_1" arrivalPos="100.00" arrivalSpeed="14.89" duration="108.00" routeLength="410.56" waitingTime="58.00" waitingCount="3" stopTime="0.00" timeLoss="80.09" rerouteNo="1" devices="tripinfo_W-E-sedan.0 routing_W-E-sedan.0" vType="sedan" speedFactor="1.09" vaporized=""/>
    <tripinfo id="W-E-sedan.1" depart="12.00" departLane="+W_1" departPos="5.10" departSpeed="0.00" departDelay="11.00" arrival="111.00" arrivalLane="-E_2" arrivalPos="100.00" arrivalSpeed="13.46" duration="99.00" routeLength="410.56" waitingTime="48.00" waitingCount="2" stopTime="0.00" timeLoss="68.18" rerouteNo="1" devices="tripinfo_W-E-sedan.1 routing_W-E-sedan.1" vType="sedan" speedFactor="0.97" vaporized=""/>
    <tripinfo id="S-N-sedan.5" depart="46.00" departLane="+S_1" departPos="5.10" departSpeed="0.00" departDelay="41.00" arrival="111.00" arrivalLane="-N_1" arrivalPos="100.00" arrivalSpeed="11.91" duration="65.00" routeLength="487.89" waitingTime="6.00" waitingCount="1" stopTime="0.00" timeLoss="25.44" rerouteNo="1" devices="tripinfo_S-N-sedan.5 routing_S-N-sedan.5" vType="sedan" speedFactor="0.91" vaporized=""/>
    <tripinfo id="W-S-sedan.7" depart="67.00" departLane="+W_1" departPos="5.10" departSpeed="0.00" departDelay="60.00" arrival="111.00" arrivalLane="-S_1" arrivalPos="100.00" arrivalSpeed="14.54" duration="44.00" routeLength="359.44" waitingTime="3.00" waitingCount="1" stopTime="0.00" timeLoss="18.56" rerouteNo="1" devices="tripinfo_W-S-sedan.7 routing_W-S-sedan.7" vType="sedan" speedFactor="1.06" vaporized=""/>
    <tripinfo id="E-W-sedan.1" depart="15.00" departLane="+E_1" departPos="5.10" departSpeed="0.00" departDelay="14.00" arrival="112.00" arrivalLane="-W_1" arrivalPos="100.00" arrivalSpeed="11.85" duration="97.00" routeLength="410.56" waitingTime="49.00" waitingCount="2" stopTime="0.00" timeLoss="65.04" rerouteNo="1" devices="tripinfo_E-W-sedan.1 routing_E-W-sedan.1" vType="sedan" speedFactor="0.94" vaporized=""/>
    <tripinfo id="E-W-sedan.2" depart="24.00" departLane="+E_1" departPos="5.10" departSpeed="0.00" departDelay="22.00" arrival="112.00" arrivalLane="-W_2" arrivalPos="100.00" arrivalSpeed="12.67" duration="88.00" routeLength="410.56" waitingTime="40.00" waitingCount="2" stopTime="0.00" timeLoss="55.81" rerouteNo="1" devices="tripinfo_E-W-sedan.2 routing_E-W-sedan.2" vType="sedan" speedFactor="0.93" vaporized=""/>
    <tripinfo id="S-N-sedan.3" depart="27.00" departLane="+S_1" departPos="5.10" departSpeed="0.00" departDelay="24.00" arrival="113.00" arrivalLane="-N_1" arrivalPos="100.00" arrivalSpeed="13.97" duration="86.00" routeLength="487.89" waitingTime="24.00" waitingCount="3" stopTime="0.00" timeLoss="53.21" rerouteNo="1" devices="tripinfo_S-N-sedan.3 routing_S-N-sedan.3" vType="sedan" speedFactor="1.09" vaporized=""/>
    <tripinfo id="W-E-sedan.3" depart="30.00" departLane="+W_1" departPos="5.10" departSpeed="0.00" departDelay="27.00" arrival="113.00" arrivalLane="-E_2" arrivalPos="100.00" arrivalSpeed="12.98" duration="83.00" routeLength="410.56" waitingTime="42.00" waitingCount="1" stopTime="0.00" timeLoss="52.77" rerouteNo="1" devices="tripinfo_W-E-sedan.3 routing_W-E-sedan.3" vType="sedan" speedFactor="1.00" vaporized=""/>
    <tripinfo id="W-E-sedan.2" depart="21.00" departLane="+W_1" departPos="5.10" departSpeed="0.00" departDelay="19.00" arrival="114.00" arrivalLane="-E_1" arrivalPos="100.00" arrivalSpeed="12.86" duration="93.00" routeLength="410.56" waitingTime="45.00" waitingCount="2" stopTime="0.00" timeLoss="62.56" rerouteNo="1" devices="tripinfo_W-E-sedan.2 routing_W-E-sedan.2" vType="sedan" speedFactor="0.99" vaporized=""/>
    <tripinfo id="E-W-sedan.4" depart="42.00" departLane="+E_1" departPos="5.10" departSpeed="0.00" departDelay="38.00" arrival="114.00" arrivalLane="-W_2" arrivalPos="100.00" arrivalSpeed="15.18" duration="72.00" routeLength="410.56" waitingTime="24.00" waitingCount="2" stopTime="0.00" timeLoss="44.15" rerouteNo="1" devices="tripinfo_E-W-sedan.4 routing_E-W-sedan.4" vType="sedan" speedFactor="1.10" vaporized=""/>
    <tripinfo id="N-W-sedan.8" depart="78.00" departLane="+N_1" departPos="5.10" departSpeed="0.00" departDelay="70.00" arrival="114.00" arrivalLane="-W_1" arrivalPos="100.00" arrivalSpeed="15.58" duration="36.00" routeLength="371.33" waitingTime="0.00" waitingCount="0" stopTime="0.00" timeLoss="11.19" rerouteNo="1" devices="tripinfo_N-W-sedan.8 routing_N-W-sedan.8" vType="sedan" speedFactor="1.12" vaporized=""/>
    <tripinfo id="W-S-sedan.8" depart="75.00" departLane="+W_1" departPos="5.10" departSpeed="0.00" departDelay="67.00" arrival="114.00" arrivalLane="-S_1" arrivalPos="100.00" arrivalSpeed="13.73" duration="39.00" routeLength="359.44" waitingTime="0.00" waitingCount="0" stopTime="0.00" timeLoss="13.70" rerouteNo="1" devices="tripinfo_W-S-sedan.8 routing_W-S-sedan.8" vType="sedan" speedFactor="1.03" vaporized=""/>
    <tripinfo id="N-E-sedan.1" depart="9.00" departLane="+N_1" departPos="5.10" departSpeed="0.00" departDelay="8.00" arrival="115.00" arrivalLane="-E_1" arrivalPos="100.00" arrivalSpeed="13.57" duration="106.00" routeLength="539.01" waitingTime="51.00" waitingCount="2" stopTime="0.00" timeLoss="68.90" rerouteNo="1" devices="tripinfo_N-E-sedan.1 routing_N-E-sedan.1" vType="sedan" speedFactor="1.05" vaporized=""/>
    <tripinfo id="W-E-sedan.4" depart="39.00" departLane="+W_1" departPos="5.10" departSpeed="0.00" departDelay="35.00" arrival="115.00" arrivalLane="-E_2" arrivalPos="100.00" arrivalSpeed="13.25" duration="76.00" routeLength="410.56" waitingTime="28.00" waitingCount="2" stopTime="0.00" timeLoss="46.36" rerouteNo="1" devices="tripinfo_W-E-sedan.4 routing_W-E-sedan.4" vType="sedan" speedFactor="1.02" vaporized=""/>
    <tripinfo id="S-W-sedan.0" depart="6.00" departLane="+S_1" departPos="5.10" departSpeed="0.00" departDelay="6.00" arrival="116.00" arrivalLane="-W_2" arrivalPos="100.00" arrivalSpeed="12.22" duration="110.00" routeLength="539.01" waitingTime="44.00" waitingCount="4" stopTime="0.00" timeLoss="67.78" rerouteNo="1" devices="tripinfo_S-W-sedan.0 routing_S-W-sedan.0" vType="sedan" speedFactor="0.94" vaporized=""/>
    <tripinfo id="S-N-sedan.6" depart="55.00" departLane="+S_1" departPos="5.10" departSpeed="0.00" departDelay="49.00" arrival="116.00" arrivalLane="-N_1" arrivalPos="100.00" arrivalSpeed="13.20" duration="61.00" routeLength="487.89" waitingTime="1.00" waitingCount="1" stopTime="0.00" timeLoss="26.08" rerouteNo="1" devices="tripinfo_S-N-sedan.6 routing_S-N-sedan.6" vType="sedan" speedFactor="1.01" vaporized=""/>
    <tripinfo id="S-W-sedan.1" depart="14.00" departLane="+S_1" departPos="5.10" departSpeed="0.00" departDelay="13.00" arrival="117.00" arrivalLane="-W_2" arrivalPos="100.00" arrivalSpeed="13.96" duration="103.00" routeLength="539.01" waitingTime="35.00" waitingCount="3" stopTime="0.00" timeLoss="64.66" rerouteNo="1" devices="tripinfo_S-W-sedan.1 routing_S-W-sedan.1" vType="sedan" speedFactor="1.02" vaporized=""/>
    <tripinfo id="E-W-sedan.5" depart="51.00" departLane="+E_1" departPos="5.10" departSpeed="0.00" departDelay="46.00" arrival="117.00" arrivalLane="-W_1" arrivalPos="100.00" arrivalSpeed="12.16" duration="66.00" routeLength="410.56" waitingTime="15.00" waitingCount="2" stopTime="0.00" timeLoss="31.57" rerouteNo="1" devices="tripinfo_E-W-sedan.5 routing_E-W-sedan.5" vType="sedan" speedFactor="0.88" vaporized=""/>