<?xml version="1.0" encoding="UTF-8"?>

<!-- generated on 2023-04-09 13:32:51 by Eclipse SUMO GUI Version 1.15.0
<configuration xmlns:xsi="http://www.w3.org/2001/XMLSchema-instance" xsi:noNamespaceSchemaLocation="http://sumo.dlr.de/xsd/sumoConfiguration.xsd">

    <input>
        <net-file value="Z:\Users\708891\Desktop\AP research\Simulations\fourWaySlip.net.xml"/>
        <route-files value="Z:\Users\708891\Desktop\AP research\Simulations\unifiedDistribution.rou.xml"/>
    </input>

    <output>
        <tripinfo-output value="Z:\Users\708891\Desktop\AP research\Simulations\output\FourWaySlip\fourWaySlipTripinfo3.xml"/>
        <collision-output value="Z:\Users\708891\Desktop\AP research\Simulations\output\FourWaySlip\fourWaySlipCollision3.xml"/>
        <statistic-output value="Z:\Users\708891\Desktop\AP research\Simulations\output\FourWaySlip\fourWaySlipNetworkStats3.xml"/>
    </output>

</configuration>
-->

<tripinfos xmlns:xsi="http://www.w3.org/2001/XMLSchema-instance" xsi:noNamespaceSchemaLocation="http://sumo.dlr.de/xsd/tripinfo_file.xsd">
    <tripinfo id="S-N-sedan.0" depart="0.00" departLane="+S_1" departPos="5.10" departSpeed="0.00" departDelay="0.00" arrival="31.00" arrivalLane="-N_1" arrivalPos="100.00" arrivalSpeed="13.81" duration="31.00" routeLength="394.90" waitingTime="0.00" waitingCount="0" stopTime="0.00" timeLoss="3.52" rerouteNo="1" devices="tripinfo_S-N-sedan.0 routing_S-N-sedan.0" vType="sedan" speedFactor="1.05" vaporized=""/>
    <tripinfo id="N-E-sedan.0" depart="0.00" departLane="+N_1" departPos="5.10" departSpeed="0.00" departDelay="0.00" arrival="33.00" arrivalLane="-E_2" arrivalPos="100.00" arrivalSpeed="13.60" duration="33.00" routeLength="394.90" waitingTime="0.00" waitingCount="0" stopTime="0.00" timeLoss="5.40" rerouteNo="1" devices="tripinfo_N-E-sedan.0 routing_N-E-sedan.0" vType="sedan" speedFactor="1.06" vaporized=""/>
    <tripinfo id="E-N-sedan.0" depart="0.00" departLane="+E_1" departPos="5.10" departSpeed="0.00" departDelay="0.00" arrival="36.00" arrivalLane="-N_1" arrivalPos="100.00" arrivalSpeed="14.15" duration="36.00" routeLength="376.59" waitingTime="1.00" waitingCount="1" stopTime="0.00" timeLoss="10.19" rerouteNo="1" devices="tripinfo_E-N-sedan.0 routing_E-N-sedan.0" vType="sedan" speedFactor="1.08" vaporized=""/>
    <tripinfo id="N-S-sedan.0" depart="3.00" departLane="+N_1" departPos="5.10" departSpeed="0.00" departDelay="3.00" arrival="39.00" arrivalLane="-S_1" arrivalPos="100.00" arrivalSpeed="12.66" duration="36.00" routeLength="394.90" waitingTime="0.00" waitingCount="0" stopTime="0.00" timeLoss="4.80" rerouteNo="1" devices="tripinfo_N-S-sedan.0 routing_N-S-sedan.0" vType="sedan" speedFactor="0.94" vaporized=""/>
    <tripinfo id="S-E-sedan.0" depart="3.00" departLane="+S_1" departPos="5.10" departSpeed="0.00" departDelay="3.00" arrival="40.00" arrivalLane="-E_1" arrivalPos="100.00" arrivalSpeed="11.90" duration="37.00" routeLength="376.59" waitingTime="0.00" waitingCount="0" stopTime="0.00" timeLoss="5.93" rerouteNo="1" devices="tripinfo_S-E-sedan.0 routing_S-E-sedan.0" vType="sedan" speedFactor="0.89" vaporized=""/>
    <tripinfo id="S-W-sedan.0" depart="6.00" departLane="+S_1" departPos="5.10" departSpeed="0.00" departDelay="6.00" arrival="42.00" arrivalLane="-W_2" arrivalPos="100.00" arrivalSpeed="12.12" duration="36.00" routeLength="394.90" waitingTime="0.00" waitingCount="0" stopTime="0.00" timeLoss="5.67" rerouteNo="1" devices="tripinfo_S-W-sedan.0 routing_S-W-sedan.0" vType="sedan" speedFactor="0.94" vaporized=""/>
    <tripinfo id="W-S-sedan.0" depart="6.00" departLane="+W_1" departPos="5.10" departSpeed="0.00" departDelay="6.00" arrival="43.00" arrivalLane="-S_1" arrivalPos="100.00" arrivalSpeed="13.11" duration="37.00" routeLength="376.59" waitingTime="1.00" waitingCount="1" stopTime="0.00" timeLoss="9.85" rerouteNo="1" devices="tripinfo_W-S-sedan.0 routing_W-S-sedan.0" vType="sedan" speedFactor="1.03" vaporized=""/>
    <tripinfo id="N-E-sedan.1" depart="9.00" departLane="+N_1" departPos="5.10" departSpeed="0.00" departDelay="8.00" arrival="44.00" arrivalLane="-E_2" arrivalPos="100.00" arrivalSpeed="13.74" duration="35.00" routeLength="394.90" waitingTime="0.00" waitingCount="0" stopTime="0.00" timeLoss="7.82" rerouteNo="1" devices="tripinfo_N-E-sedan.1 routing_N-E-sedan.1" vType="sedan" speedFactor="1.05" vaporized=""/>
    <tripinfo id="N-S-sedan.1" depart="12.00" departLane="+N_1" departPos="5.10" departSpeed="0.00" departDelay="11.00" arrival="44.00" arrivalLane="-S_1" arrivalPos="100.00" arrivalSpeed="15.52" duration="32.00" routeLength="394.90" waitingTime="0.00" waitingCount="0" stopTime="0.00" timeLoss="6.52" rerouteNo="1" devices="tripinfo_N-S-sedan.1 routing_N-S-sedan.1" vType="sedan" speedFactor="1.12" vaporized=""/>
    <tripinfo id="S-N-sedan.1" depart="9.00" departLane="+S_1" departPos="5.10" departSpeed="0.00" departDelay="8.00" arrival="44.00" arrivalLane="-N_1" arrivalPos="100.00" arrivalSpeed="12.90" duration="35.00" routeLength="394.90" waitingTime="0.00" waitingCount="0" stopTime="0.00" timeLoss="4.52" rerouteNo="1" devices="tripinfo_S-N-sedan.1 routing_S-N-sedan.1" vType="sedan" speedFactor="0.94" vaporized=""/>
    <tripinfo id="N-W-sedan.0" depart="6.00" departLane="+N_1" departPos="5.10" departSpeed="0.00" departDelay="6.00" arrival="45.00" arrivalLane="-W_1" arrivalPos="100.00" arrivalSpeed="12.93" duration="39.00" routeLength="376.59" waitingTime="2.00" waitingCount="1" stopTime="0.00" timeLoss="11.56" rerouteNo="1" devices="tripinfo_N-W-sedan.0 routing_N-W-sedan.0" vType="sedan" speedFactor="1.01" vaporized=""/>
    <tripinfo id="S-E-sedan.1" depart="12.00" departLane="+S_1" departPos="5.10" departSpeed="0.00" departDelay="11.00" arrival="46.00" arrivalLane="-E_1" arrivalPos="100.00" arrivalSpeed="15.87" duration="34.00" routeLength="376.59" waitingTime="0.00" waitingCount="0" stopTime="0.00" timeLoss="10.47" rerouteNo="1" devices="tripinfo_S-E-sedan.1 routing_S-E-sedan.1" vType="sedan" speedFactor="1.16" vaporized=""/>
    <tripinfo id="E-N-sedan.1" depart="9.00" departLane="+E_1" departPos="5.10" departSpeed="0.00" departDelay="8.00" arrival="48.00" arrivalLane="-N_1" arrivalPos="100.00" arrivalSpeed="12.26" duration="39.00" routeLength="376.59" waitingTime="0.00" waitingCount="0" stopTime="0.00" timeLoss="8.83" rerouteNo="1" devices="tripinfo_E-N-sedan.1 routing_E-N-sedan.1" vType="sedan" speedFactor="0.93" vaporized=""/>
    <tripinfo id="S-W-sedan.1" depart="15.00" departLane="+S_1" departPos="5.10" departSpeed="0.00" departDelay="14.00" arrival="49.00" arrivalLane="-W_2" arrivalPos="100.00" arrivalSpeed="12.99" duration="34.00" routeLength="394.90" waitingTime="0.00" waitingCount="0" stopTime="0.00" timeLoss="5.97" rerouteNo="1" devices="tripinfo_S-W-sedan.1 routing_S-W-sedan.1" vType="sedan" speedFactor="1.02" vaporized=""/>
    <tripinfo id="S-N-sedan.2" depart="18.00" departLane="+S_1" departPos="5.10" departSpeed="0.00" departDelay="16.00" arrival="49.00" arrivalLane="-N_1" arrivalPos="100.00" arrivalSpeed="13.35" duration="31.00" routeLength="394.90" waitingTime="0.00" waitingCount="0" stopTime="0.00" timeLoss="6.69" rerouteNo="1" devices="tripinfo_S-N-sedan.2 routing_S-N-sedan.2" vType="sedan" speedFactor="1.18" vaporized=""/>
    <tripinfo id="W-S-sedan.1" depart="15.00" departLane="+W_1" departPos="5.10" departSpeed="0.00" departDelay="14.00" arrival="52.00" arrivalLane="-S_1" arrivalPos="100.00" arrivalSpeed="11.74" duration="37.00" routeLength="376.59" waitingTime="0.00" waitingCount="0" stopTime="0.00" timeLoss="5.96" rerouteNo="1" devices="tripinfo_W-S-sedan.1 routing_W-S-sedan.1" vType="sedan" speedFactor="0.89" vaporized=""/>
    <tripinfo id="S-E-sedan.2" depart="21.00" departLane="+S_1" departPos="5.10" departSpeed="0.00" departDelay="19.00" arrival="52.00" arrivalLane="-E_1" arrivalPos="100.00" arrivalSpeed="15.08" duration="31.00" routeLength="376.59" waitingTime="0.00" waitingCount="0" stopTime="0.00" timeLoss="7.12" rerouteNo="1" devices="tripinfo_S-E-sedan.2 routing_S-E-sedan.2" vType="sedan" speedFactor="1.15" vaporized=""/>
    <tripinfo id="N-W-sedan.1" depart="16.00" departLane="+N_1" departPos="5.10" departSpeed="0.00" departDelay="15.00" arrival="53.00" arrivalLane="-W_1" arrivalPos="100.00" arrivalSpeed="12.59" duration="37.00" routeLength="376.59" waitingTime="0.00" waitingCount="0" stopTime="0.00" timeLoss="9.12" rerouteNo="1" devices="tripinfo_N-W-sedan.1 routing_N-W-sedan.1" vType="sedan" speedFactor="0.99" vaporized=""/>
    <tripinfo id="E-N-sedan.2" depart="18.00" departLane="+E_1" departPos="5.10" departSpeed="0.00" departDelay="16.00" arrival="53.00" arrivalLane="-N_1" arrivalPos="100.00" arrivalSpeed="12.90" duration="35.00" routeLength="376.59" waitingTime="0.00" waitingCount="0" stopTime="0.00" timeLoss="6.04" rerouteNo="1" devices="tripinfo_E-N-sedan.2 routing_E-N-sedan.2" vType="sedan" speedFactor="0.95" vaporized=""/>
    <tripinfo id="N-E-sedan.2" depart="19.00" departLane="+N_1" departPos="5.10" departSpeed="0.00" departDelay="17.00" arrival="59.00" arrivalLane="-E_2" arrivalPos="100.00" arrivalSpeed="10.44" duration="40.00" routeLength="394.90" waitingTime="0.00" waitingCount="0" stopTime="0.00" timeLoss="5.49" rerouteNo="1" devices="tripinfo_N-E-sedan.2 routing_N-E-sedan.2" vType="sedan" speedFactor="0.83" vaporized=""/>
    <tripinfo id="N-S-sedan.2" depart="22.00" departLane="+N_1" departPos="5.10" departSpeed="0.00" departDelay="20.00" arrival="59.00" arrivalLane="-S_1" arrivalPos="100.00" arrivalSpeed="11.21" duration="37.00" routeLength="394.90" waitingTime="0.00" waitingCount="0" stopTime="0.00" timeLoss="4.34" rerouteNo="1" devices="tripinfo_N-S-sedan.2 routing_N-S-sedan.2" vType="sedan" speedFactor="0.87" vaporized=""/>
    <tripinfo id="N-W-sedan.2" depart="25.00" departLane="+N_1" departPos="5.10" departSpeed="0.00" departDelay="23.00" arrival="60.00" arrivalLane="-W_1" arrivalPos="100.00" arrivalSpeed="12.09" duration="35.00" routeLength="376.59" waitingTime="0.00" waitingCount="0" stopTime="0.00" timeLoss="4.96" rerouteNo="1" devices="tripinfo_N-W-sedan.2 routing_N-W-sedan.2" vType="sedan" speedFactor="0.92" vaporized=""/>
    <tripinfo id="W-E-sedan.0" depart="3.00" departLane="+W_1" departPos="5.10" departSpeed="0.00" departDelay="3.00" arrival="62.00" arrivalLane="-E_1" arrivalPos="100.00" arrivalSpeed="14.03" duration="59.00" routeLength="394.90" waitingTime="23.00" waitingCount="1" stopTime="0.00" timeLoss="32.41" rerouteNo="1" devices="tripinfo_W-E-sedan.0 routing_W-E-sedan.0" vType="sedan" speedFactor="1.09" vaporized=""/>
    <tripinfo id="E-N-sedan.3" depart="27.00" departLane="+E_1" departPos="5.10" departSpeed="0.00" departDelay="24.00" arrival="63.00" arrivalLane="-N_1" arrivalPos="100.00" arrivalSpeed="11.50" duration="36.00" routeLength="376.59" waitingTime="0.00" waitingCount="0" stopTime="0.00" timeLoss="5.86" rerouteNo="1" devices="tripinfo_E-N-sedan.3 routing_E-N-sedan.3" vType="sedan" speedFactor="0.90" vaporized=""/>
    <tripinfo id="W-E-sedan.1" depart="12.00" departLane="+W_1" departPos="5.10" departSpeed="0.00" departDelay="11.00" arrival="65.00" arrivalLane="-E_1" arrivalPos="100.00" arrivalSpeed="12.37" duration="53.00" routeLength="394.90" waitingTime="13.00" waitingCount="1" stopTime="0.00" timeLoss="23.29" rerouteNo="1" devices="tripinfo_W-E-sedan.1 routing_W-E-sedan.1" vType="sedan" speedFactor="0.97" vaporized=""/>
    <tripinfo id="E-W-sedan.0" depart="6.00" departLane="+E_1" departPos="5.10" departSpeed="0.00" departDelay="6.00" arrival="66.00" arrivalLane="-W_1" arrivalPos="100.00" arrivalSpeed="10.54" duration="60.00" routeLength="394.90" waitingTime="15.00" waitingCount="1" stopTime="0.00" timeLoss="24.89" rerouteNo="1" devices="tripinfo_E-W-sedan.0 routing_E-W-sedan.0" vType="sedan" speedFactor="0.83" vaporized=""/>
    <tripinfo id="E-N-sedan.4" depart="36.00" departLane="+E_1" departPos="5.10" departSpeed="0.00" departDelay="32.00" arrival="66.00" arrivalLane="-N_1" arrivalPos="100.00" arrivalSpeed="15.43" duration="30.00" routeLength="376.59" waitingTime="0.00" waitingCount="0" stopTime="0.00" timeLoss="6.54" rerouteNo="1" devices="tripinfo_E-N-sedan.4 routing_E-N-sedan.4" vType="sedan" speedFactor="1.17" vaporized=""/>
    <tripinfo id="E-W-sedan.1" depart="15.00" departLane="+E_1" departPos="5.10" departSpeed="0.00" departDelay="14.00" arrival="67.00" arrivalLane="-W_1" arrivalPos="100.00" arrivalSpeed="12.72" duration="52.00" routeLength="394.90" waitingTime="10.00" waitingCount="1" stopTime="0.00" timeLoss="21.58" rerouteNo="1" devices="tripinfo_E-W-sedan.1 routing_E-W-sedan.1" vType="sedan" speedFactor="0.94" vaporized=""/>
    <tripinfo id="W-E-sedan.2" depart="21.00" departLane="+W_1" departPos="5.10" departSpeed="0.00" departDelay="19.00" arrival="67.00" arrivalLane="-E_1" arrivalPos="100.00" arrivalSpeed="12.65" duration="46.00" routeLength="394.90" waitingTime="5.00" waitingCount="1" stopTime="0.00" timeLoss="16.65" rerouteNo="1" devices="tripinfo_W-E-sedan.2 routing_W-E-sedan.2" vType="sedan" speedFactor="0.99" vaporized=""/>
    <tripinfo id="W-E-sedan.3" depart="30.00" departLane="+W_1" departPos="5.10" departSpeed="0.00" departDelay="27.00" arrival="68.00" arrivalLane="-E_1" arrivalPos="100.00" arrivalSpeed="12.83" duration="38.00" routeLength="394.90" waitingTime="0.00" waitingCount="0" stopTime="0.00" timeLoss="9.46" rerouteNo="1" devices="tripinfo_W-E-sedan.3 routing_W-E-sedan.3" vType="sedan" speedFactor="1.00" vaporized=""/>
    <tripinfo id="E-W-sedan.2" depart="24.00" departLane="+E_1" departPos="5.10" departSpeed="0.00" departDelay="22.00" arrival="69.00" arrivalLane="-W_1" arrivalPos="100.00" arrivalSpeed="11.65" duration="45.00" routeLength="394.90" waitingTime="2.00" waitingCount="1" stopTime="0.00" timeLoss="14.15" rerouteNo="1" devices="tripinfo_E-W-sedan.2 routing_E-W-sedan.2" vType="sedan" speedFactor="0.93" vaporized=""/>
    <tripinfo id="E-W-sedan.3" depart="33.00" departLane="+E_1" departPos="5.10" departSpeed="0.00" departDelay="30.00" arrival="71.00" arrivalLane="-W_1" arrivalPos="100.00" arrivalSpeed="13.23" duration="38.00" routeLength="394.90" waitingTime="0.00" waitingCount="0" stopTime="0.00" timeLoss="7.57" rerouteNo="1" devices="tripinfo_E-W-sedan.3 routing_E-W-sedan.3" vType="sedan" speedFactor="0.96" vaporized=""/>
    <tripinfo id="W-E-sedan.4" depart="39.00" departLane="+W_1" departPos="5.10" departSpeed="0.00" departDelay="35.00" arrival="72.00" arrivalLane="-E_1" arrivalPos="100.00" arrivalSpeed="14.16" duration="33.00" routeLength="394.90" waitingTime="0.00" waitingCount="0" stopTime="0.00" timeLoss="4.68" rerouteNo="1" devices="tripinfo_W-E-sedan.4 routing_W-E-sedan.4" vType="sedan" speedFactor="1.02" vaporized=""/>
    <tripinfo id="E-W-sedan.4" depart="42.00" departLane="+E_1" departPos="5.10" departSpeed="0.00" departDelay="38.00" arrival="73.00" arrivalLane="-W_1" arrivalPos="100.00" arrivalSpeed="14.54" duration="31.00" routeLength="394.90" waitingTime="0.00" waitingCount="0" stopTime="0.00" timeLoss="4.19" rerouteNo="1" devices="tripinfo_E-W-sedan.4 routing_E-W-sedan.4" vType="sedan" speedFactor="1.10" vaporized=""/>
    <tripinfo id="W-N-sedan.0" depart="0.00" departLane="+W_1" departPos="5.10" departSpeed="0.00" departDelay="0.00" arrival="74.00" arrivalLane="-N_2" arrivalPos="100.00" arrivalSpeed="11.58" duration="74.00" routeLength="394.90" waitingTime="28.00" waitingCount="2" stopTime="0.00" timeLoss="40.28" rerouteNo="1" devices="tripinfo_W-N-sedan.0 routing_W-N-sedan.0" vType="sedan" speedFactor="0.86" vaporized=""/>
    <tripinfo id="E-S-sedan.0" depart="3.00" departLane="+E_1" departPos="5.10" departSpeed="0.00" departDelay="3.00" arrival="75.00" arrivalLane="-S_2" arrivalPos="100.00" arrivalSpeed="13.68" duration="72.00" routeLength="394.90" waitingTime="33.00" waitingCount="2" stopTime="0.00" timeLoss="43.90" rerouteNo="1" devices="tripinfo_E-S-sedan.0 routing_E-S-sedan.0" vType="sedan" speedFactor="1.03" vaporized=""/>
    <tripinfo id="W-N-sedan.1" depart="9.00" departLane="+W_1" departPos="5.10" departSpeed="0.00" departDelay="8.00" arrival="76.00" arrivalLane="-N_2" arrivalPos="100.00" arrivalSpeed="12.99" duration="67.00" routeLength="394.90" waitingTime="23.00" waitingCount="2" stopTime="0.00" timeLoss="38.80" rerouteNo="1" devices="tripinfo_W-N-sedan.1 routing_W-N-sedan.1" vType="sedan" speedFactor="1.01" vaporized=""/>
    <tripinfo id="N-W-sedan.3" depart="34.00" departLane="+N_1" departPos="5.10" departSpeed="0.00" departDelay="31.00" arrival="76.00" arrivalLane="-W_1" arrivalPos="100.00" arrivalSpeed="14.12" duration="42.00" routeLength="376.59" waitingTime="7.00" waitingCount="1" stopTime="0.00" timeLoss="17.18" rerouteNo="1" devices="tripinfo_N-W-sedan.3 routing_N-W-sedan.3" vType="sedan" speedFactor="1.10" vaporized=""/>
    <tripinfo id="S-E-sedan.3" depart="30.00" departLane="+S_1" departPos="5.10" departSpeed="0.00" departDelay="27.00" arrival="76.00" arrivalLane="-E_1" arrivalPos="100.00" arrivalSpeed="13.36" duration="46.00" routeLength="376.59" waitingTime="10.00" waitingCount="1" stopTime="0.00" timeLoss="19.82" rerouteNo="1" devices="tripinfo_S-E-sedan.3 routing_S-E-sedan.3" vType="sedan" speedFactor="1.04" vaporized=""/>
    <tripinfo id="W-N-sedan.2" depart="18.00" departLane="+W_1" departPos="5.10" departSpeed="0.00" departDelay="16.00" arrival="78.00" arrivalLane="-N_2" arrivalPos="100.00" arrivalSpeed="15.83" duration="60.00" routeLength="394.90" waitingTime="16.00" waitingCount="2" stopTime="0.00" timeLoss="35.16" rerouteNo="1" devices="tripinfo_W-N-sedan.2 routing_W-N-sedan.2" vType="sedan" speedFactor="1.17" vaporized=""/>
    <tripinfo id="E-S-sedan.1" depart="12.00" departLane="+E_1" departPos="5.10" departSpeed="0.00" departDelay="11.00" arrival="79.00" arrivalLane="-S_2" arrivalPos="100.00" arrivalSpeed="11.32" duration="67.00" routeLength="394.90" waitingTime="23.00" waitingCount="2" stopTime="0.00" timeLoss="34.10" rerouteNo="1" devices="tripinfo_E-S-sedan.1 routing_E-S-sedan.1" vType="sedan" speedFactor="0.88" vaporized=""/>
    <tripinfo id="W-N-sedan.3" depart="27.00" departLane="+W_1" departPos="5.10" departSpeed="0.00" departDelay="24.00" arrival="80.00" arrivalLane="-N_2" arrivalPos="100.00" arrivalSpeed="14.96" duration="53.00" routeLength="394.90" waitingTime="8.00" waitingCount="2" stopTime="0.00" timeLoss="26.38" rerouteNo="1" devices="tripinfo_W-N-sedan.3 routing_W-N-sedan.3" vType="sedan" speedFactor="1.09" vaporized=""/>
    <tripinfo id="W-E-sedan.5" depart="48.00" departLane="+W_1" departPos="5.10" departSpeed="0.00" departDelay="43.00" arrival="80.00" arrivalLane="-E_1" arrivalPos="100.00" arrivalSpeed="14.05" duration="32.00" routeLength="394.90" waitingTime="0.00" waitingCount="0" stopTime="0.00" timeLoss="4.06" rerouteNo="1" devices="tripinfo_W-E-sedan.5 routing_W-E-sedan.5" vType="sedan" speedFactor="1.02" vaporized=""/>
    <tripinfo id="W-S-sedan.2" depart="24.00" departLane="+W_1" departPos="5.10" departSpeed="0.00" departDelay="22.00" arrival="81.00" arrivalLane="-S_1" arrivalPos="100.00" arrivalSpeed="13.95" duration="57.00" routeLength="376.59" waitingTime="17.00" waitingCount="1" stopTime="0.00" timeLoss="29.57" rerouteNo="1" devices="tripinfo_W-S-sedan.2 routing_W-S-sedan.2" vType="sedan" speedFactor="1.02" vaporized=""/>
    <tripinfo id="N-W-sedan.4" depart="43.00" departLane="+N_1" departPos="5.10" departSpeed="0.00" departDelay="39.00" arrival="81.00" arrivalLane="-W_1" arrivalPos="100.00" arrivalSpeed="11.20" duration="38.00" routeLength="376.59" waitingTime="0.00" waitingCount="0" stopTime="0.00" timeLoss="5.57" rerouteNo="1" devices="tripinfo_N-W-sedan.4 routing_N-W-sedan.4" vType="sedan" speedFactor="0.85" vaporized=""/>
    <tripinfo id="W-N-sedan.4" depart="36.00" departLane="+W_1" departPos="5.10" departSpeed="0.00" departDelay="32.00" arrival="82.00" arrivalLane="-N_2" arrivalPos="100.00" arrivalSpeed="14.61" duration="46.00" routeLength="394.90" waitingTime="5.00" waitingCount="1" stopTime="0.00" timeLoss="20.29" rerouteNo="1" devices="tripinfo_W-N-sedan.4 routing_W-N-sedan.4" vType="sedan" speedFactor="1.14" vaporized=""/>
    <tripinfo id="E-S-sedan.2" depart="21.00" departLane="+E_1" departPos="5.10" departSpeed="0.00" departDelay="19.00" arrival="83.00" arrivalLane="-S_2" arrivalPos="100.00" arrivalSpeed="14.64" duration="62.00" routeLength="394.90" waitingTime="19.00" waitingCount="3" stopTime="0.00" timeLoss="36.46" rerouteNo="1" devices="tripinfo_E-S-sedan.2 routing_E-S-sedan.2" vType="sedan" speedFactor="1.13" vaporized=""/>
    <tripinfo id="S-E-sedan.5" depart="48.00" departLane="+S_1" departPos="5.10" departSpeed="0.00" departDelay="43.00" arrival="83.00" arrivalLane="-E_1" arrivalPos="100.00" arrivalSpeed="12.14" duration="35.00" routeLength="376.59" waitingTime="0.00" waitingCount="0" stopTime="0.00" timeLoss="4.99" rerouteNo="1" devices="tripinfo_S-E-sedan.5 routing_S-E-sedan.5" vType="sedan" speedFactor="0.91" vaporized=""/>
    <tripinfo id="E-S-sedan.3" depart="30.00" departLane="+E_1" departPos="5.10" departSpeed="0.00" departDelay="27.00" arrival="86.00" arrivalLane="-S_2" arrivalPos="100.00" arrivalSpeed="14.26" duration="56.00" routeLength="394.90" waitingTime="9.00" waitingCount="1" stopTime="0.00" timeLoss="27.59" rerouteNo="1" devices="tripinfo_E-S-sedan.3 routing_E-S-sedan.3" vType="sedan" speedFactor="1.03" vaporized=""/>
    <tripinfo id="E-W-sedan.5" depart="51.00" departLane="+E_1" departPos="5.10" departSpeed="0.00" departDelay="46.00" arrival="88.00" arrivalLane="-W_1" arrivalPos="100.00" arrivalSpeed="11.80" duration="37.00" routeLength="394.90" waitingTime="0.00" waitingCount="0" stopTime="0.00" timeLoss="4.14" rerouteNo="1" devices="tripinfo_E-W-sedan.5 routing_E-W-sedan.5" vType="sedan" speedFactor="0.88" vaporized=""/>
    <tripinfo id="W-S-sedan.4" depart="42.00" departLane="+W_1" departPos="5.10" departSpeed="0.00" departDelay="38.00" arrival="89.00" arrivalLane="-S_1" arrivalPos="100.00" arrivalSpeed="13.25" duration="47.00" routeLength="376.59" waitingTime="8.00" waitingCount="2" stopTime="0.00" timeLoss="18.77" rerouteNo="1" devices="tripinfo_W-S-sedan.4 routing_W-S-sedan.4" vType="sedan" speedFactor="0.97" vaporized=""/>
    <tripinfo id="W-E-sedan.6" depart="57.00" departLane="+W_1" departPos="5.10" departSpeed="0.00" departDelay="51.00" arrival="89.00" arrivalLane="-E_1" arrivalPos="100.00" arrivalSpeed="13.67" duration="32.00" routeLength="394.90" waitingTime="0.00" waitingCount="0" stopTime="0.00" timeLoss="3.96" rerouteNo="1" devices="tripinfo_W-E-sedan.6 routing_W-E-sedan.6" vType="sedan" speedFactor="1.02" vaporized=""/>
    <tripinfo id="N-W-sedan.5" depart="52.00" departLane="+N_1" departPos="5.10" departSpeed="0.00" departDelay="47.00" arrival="90.00" arrivalLane="-W_1" arrivalPos="100.00" arrivalSpeed="12.97" duration="38.00" routeLength="376.59" waitingTime="2.00" waitingCount="1" stopTime="0.00" timeLoss="10.70" rerouteNo="1" devices="tripinfo_N-W-sedan.5 routing_N-W-sedan.5" vType="sedan" speedFactor="1.02" vaporized=""/>
    <tripinfo id="W-N-sedan.5" depart="45.00" departLane="+W_1" departPos="5.10" departSpeed="0.00" departDelay="40.00" arrival="90.00" arrivalLane="-N_2" arrivalPos="100.00" arrivalSpeed="13.07" duration="45.00" routeLength="394.90" waitingTime="0.00" waitingCount="0" stopTime="0.00" timeLoss="16.35" rerouteNo="1" devices="tripinfo_W-N-sedan.5 routing_W-N-sedan.5" vType="sedan" speedFactor="1.02" vaporized=""/>
    <tripinfo id="S-E-sedan.6" depart="57.00" departLane="+S_1" departPos="5.10" departSpeed="0.00" departDelay="51.00" arrival="92.00" arrivalLane="-E_1" arrivalPos="100.00" arrivalSpeed="14.56" duration="35.00" routeLength="376.59" waitingTime="0.00" waitingCount="0" stopTime="0.00" timeLoss="9.32" rerouteNo="1" devices="tripinfo_S-E-sedan.6 routing_S-E-sedan.6" vType="sedan" speedFactor="1.09" vaporized=""/>
    <tripinfo id="E-S-sedan.4" depart="39.00" departLane="+E_1" departPos="5.10" departSpeed="0.00" departDelay="35.00" arrival="94.00" arrivalLane="-S_2" arrivalPos="100.00" arrivalSpeed="13.02" duration="55.00" routeLength="394.90" waitingTime="4.00" waitingCount="2" stopTime="0.00" timeLoss="26.35" rerouteNo="1" devices="tripinfo_E-S-sedan.4 routing_E-S-sedan.4" vType="sedan" speedFactor="1.02" vaporized=""/>
    <tripinfo id="E-W-sedan.6" depart="60.00" departLane="+E_1" departPos="5.10" departSpeed="0.00" departDelay="54.00" arrival="95.00" arrivalLane="-W_1" arrivalPos="100.00" arrivalSpeed="12.45" duration="35.00" routeLength="394.90" waitingTime="0.00" waitingCount="0" stopTime="0.00" timeLoss="5.25" rerouteNo="1" devices="tripinfo_E-W-sedan.6 routing_E-W-sedan.6" vType="sedan" speedFactor="0.98" vaporized=""/>
    <tripinfo id="W-E-sedan.7" depart="66.00" departLane="+W_1" departPos="5.10" departSpeed="0.00" departDelay="59.00" arrival="97.00" arrivalLane="-E_1" arrivalPos="100.00" arrivalSpeed="14.86" duration="31.00" routeLength="394.90" waitingTime="0.00" waitingCount="0" stopTime="0.00" timeLoss="4.56" rerouteNo="1" devices="tripinfo_W-E-sedan.7 routing_W-E-sedan.7" vType="sedan" speedFactor="1.09" vaporized=""/>
    <tripinfo id="N-W-sedan.6" depart="61.00" departLane="+N_1" departPos="5.10" departSpeed="0.00" departDelay="55.00" arrival="98.00" arrivalLane="-W_1" arrivalPos="100.00" arrivalSpeed="12.56" duration="37.00" routeLength="376.59" waitingTime="0.00" waitingCount="0" stopTime="0.00" timeLoss="7.78" rerouteNo="1" devices="tripinfo_N-W-sedan.6 routing_N-W-sedan.6" vType="sedan" speedFactor="0.96" vaporized=""/>
    <tripinfo id="W-N-sedan.6" depart="54.00" departLane="+W_1" departPos="5.10" departSpeed="0.00" departDelay="48.00" arrival="98.00" arrivalLane="-N_2" arrivalPos="100.00" arrivalSpeed="13.57" duration="44.00" routeLength="394.90" waitingTime="3.00" waitingCount="1" stopTime="0.00" timeLoss="14.76" rerouteNo="1" devices="tripinfo_W-N-sedan.6 routing_W-N-sedan.6" vType="sedan" speedFactor="1.00" vaporized=""/>
    <tripinfo id="E-W-sedan.7" depart="69.00" departLane="+E_1" departPos="5.10" departSpeed="0.00" departDelay="62.00" arrival="101.00" arrivalLane="-W_1" arrivalPos="100.00" arrivalSpeed="13.15" duration="32.00" routeLength="394.90" waitingTime="0.00" waitingCount="0" stopTime="0.00" timeLoss="4.06" rerouteNo="1" devices="tripinfo_E-W-sedan.7 routing_E-W-sedan.7" vType="sedan" speedFactor="1.02" vaporized=""/>
    <tripinfo id="S-E-sedan.4" depart="39.00" departLane="+S_1" departPos="5.10" departSpeed="0.00" departDelay="35.00" arrival="102.00" arrivalLane="-E_1" arrivalPos="100.00" arrivalSpeed="13.10" duration="63.00" routeLength="376.59" waitingTime="26.00" waitingCount="1" stopTime="0.00" timeLoss="35.30" rerouteNo="1" devices="tripinfo_S-E-sedan.4 routing_S-E-sedan.4" vType="sedan" speedFactor="1.00" vaporized=""/>
    <tripinfo id="E-N-sedan.5" depart="45.00" departLane="+E_1" departPos="5.10" departSpeed="0.00" departDelay="40.00" arrival="102.00" arrivalLane="-N_1" arrivalPos="100.00" arrivalSpeed="12.45" duration="57.00" routeLength="376.59" waitingTime="21.00" waitingCount="1" stopTime="0.00" timeLoss="29.30" rerouteNo="1" devices="tripinfo_E-N-sedan.5 routing_E-N-sedan.5" vType="sedan" speedFactor="0.99" vaporized=""/>
    <tripinfo id="E-S-sedan.5" depart="48.00" departLane="+E_1" departPos="5.10" departSpeed="0.00" departDelay="43.00" arrival="102.00" arrivalLane="-S_2" arrivalPos="100.00" arrivalSpeed="11.92" duration="54.00" routeLength="394.90" waitingTime="3.00" waitingCount="1" stopTime="0.00" timeLoss="23.42" rerouteNo="1" devices="tripinfo_E-S-sedan.5 routing_E-S-sedan.5" vType="sedan" speedFactor="0.94" vaporized=""/>
    <tripinfo id="W-S-sedan.5" depart="51.00" departLane="+W_1" departPos="5.10" departSpeed="0.00" departDelay="46.00" arrival="105.00" arrivalLane="-S_1" arrivalPos="100.00" arrivalSpeed="12.91" duration="54.00" routeLength="376.59" waitingTime="13.00" waitingCount="2" stopTime="0.00" timeLoss="25.21" rerouteNo="1" devices="tripinfo_W-S-sedan.5 routing_W-S-sedan.5" vType="sedan" speedFactor="0.97" vaporized=""/>
    <tripinfo id="N-S-sedan.3" depart="31.00" departLane="+N_1" departPos="5.10" departSpeed="0.00" departDelay="28.00" arrival="106.00" arrivalLane="-S_1" arrivalPos="100.00" arrivalSpeed="15.11" duration="75.00" routeLength="394.90" waitingTime="38.00" waitingCount="1" stopTime="0.00" timeLoss="50.74" rerouteNo="1" devices="tripinfo_N-S-sedan.3 routing_N-S-sedan.3" vType="sedan" speedFactor="1.18" vaporized=""/>
    <tripinfo id="S-N-sedan.3" depart="27.00" departLane="+S_1" departPos="5.10" departSpeed="0.00" departDelay="24.00" arrival="107.00" arrivalLane="-N_1" arrivalPos="100.00" arrivalSpeed="14.05" duration="80.00" routeLength="394.90" waitingTime="43.00" waitingCount="1" stopTime="0.00" timeLoss="53.45" rerouteNo="1" devices="tripinfo_S-N-sedan.3 routing_S-N-sedan.3" vType="sedan" speedFactor="1.09" vaporized=""/>
    <tripinfo id="S-N-sedan.4" depart="36.00" departLane="+S_1" departPos="5.10" departSpeed="0.00" departDelay="32.00" arrival="110.00" arrivalLane="-N_1" arrivalPos="100.00" arrivalSpeed="13.02" duration="74.00" routeLength="394.90" waitingTime="33.00" waitingCount="1" stopTime="0.00" timeLoss="44.77" rerouteNo="1" devices="tripinfo_S-N-sedan.4 routing_S-N-sedan.4" vType="sedan" speedFactor="1.00" vaporized=""/>
    <tripinfo id="N-S-sedan.4" depart="40.00" departLane="+N_1" departPos="5.10" departSpeed="0.00" departDelay="36.00" arrival="112.00" arrivalLane="-S_1" arrivalPos="100.00" arrivalSpeed="11.19" duration="72.00" routeLength="394.90" waitingTime="29.00" waitingCount="1" stopTime="0.00" timeLoss="38.03" rerouteNo="1" devices="tripinfo_N-S-sedan.4 routing_N-S-sedan.4" vType="sedan" speedFactor="0.85" vaporized=""/>