<?xml version="1.0" encoding="UTF-8"?>

<!-- generated on 2023-04-18 12:19:53 by Eclipse SUMO GUI Version 1.15.0
<configuration xmlns:xsi="http://www.w3.org/2001/XMLSchema-instance" xsi:noNamespaceSchemaLocation="http://sumo.dlr.de/xsd/sumoConfiguration.xsd">

    <input>
        <net-file value="Simulations\fourWaySlip.net.xml"/>
        <route-files value="Simulations\unifiedDistribution.rou.xml"/>
    </input>

    <output>
        <tripinfo-output value="Simulations\output\fourWaySlip\fourWaySlipTripinfo3.xml"/>
        <collision-output value="Simulations\output\fourWaySlip\fourWaySlipCollision3.xml"/>
        <statistic-output value="Simulations\output\fourWaySlip\fourWaySlipNetworkStats3.xml"/>
    </output>

</configuration>
-->

<tripinfos xmlns:xsi="http://www.w3.org/2001/XMLSchema-instance" xsi:noNamespaceSchemaLocation="http://sumo.dlr.de/xsd/tripinfo_file.xsd">
    <tripinfo id="E-N-sedan.0" depart="0.00" departLane="+E_1" departPos="5.10" departSpeed="0.00" departDelay="0.00" arrival="31.00" arrivalLane="-N_1" arrivalPos="100.00" arrivalSpeed="14.71" duration="31.00" routeLength="376.59" waitingTime="0.00" waitingCount="0" stopTime="0.00" timeLoss="5.86" rerouteNo="1" devices="tripinfo_E-N-sedan.0 routing_E-N-sedan.0" vType="sedan" speedFactor="1.08" vaporized=""/>
    <tripinfo id="S-N-sedan.0" depart="0.00" departLane="+S_1" departPos="5.10" departSpeed="0.00" departDelay="0.00" arrival="31.00" arrivalLane="-N_2" arrivalPos="100.00" arrivalSpeed="14.39" duration="31.00" routeLength="394.90" waitingTime="0.00" waitingCount="0" stopTime="0.00" timeLoss="3.67" rerouteNo="1" devices="tripinfo_S-N-sedan.0 routing_S-N-sedan.0" vType="sedan" speedFactor="1.05" vaporized=""/>
    <tripinfo id="N-E-sedan.0" depart="0.00" departLane="+N_1" departPos="5.10" departSpeed="0.00" departDelay="0.00" arrival="33.00" arrivalLane="-E_2" arrivalPos="100.00" arrivalSpeed="13.55" duration="33.00" routeLength="394.90" waitingTime="0.00" waitingCount="0" stopTime="0.00" timeLoss="5.42" rerouteNo="1" devices="tripinfo_N-E-sedan.0 routing_N-E-sedan.0" vType="sedan" speedFactor="1.06" vaporized=""/>
    <tripinfo id="W-S-sedan.0" depart="6.00" departLane="+W_1" departPos="5.10" departSpeed="0.00" departDelay="6.00" arrival="37.00" arrivalLane="-S_1" arrivalPos="100.00" arrivalSpeed="14.01" duration="31.00" routeLength="376.59" waitingTime="0.00" waitingCount="0" stopTime="0.00" timeLoss="4.52" rerouteNo="1" devices="tripinfo_W-S-sedan.0 routing_W-S-sedan.0" vType="sedan" speedFactor="1.03" vaporized=""/>
    <tripinfo id="N-W-sedan.0" depart="6.00" departLane="+N_1" departPos="5.10" departSpeed="0.00" departDelay="6.00" arrival="38.00" arrivalLane="-W_1" arrivalPos="100.00" arrivalSpeed="13.02" duration="32.00" routeLength="376.59" waitingTime="0.00" waitingCount="0" stopTime="0.00" timeLoss="4.79" rerouteNo="1" devices="tripinfo_N-W-sedan.0 routing_N-W-sedan.0" vType="sedan" speedFactor="1.01" vaporized=""/>
    <tripinfo id="S-E-sedan.0" depart="3.00" departLane="+S_1" departPos="5.10" departSpeed="0.00" departDelay="3.00" arrival="38.00" arrivalLane="-E_1" arrivalPos="100.00" arrivalSpeed="12.00" duration="35.00" routeLength="376.59" waitingTime="0.00" waitingCount="0" stopTime="0.00" timeLoss="3.94" rerouteNo="1" devices="tripinfo_S-E-sedan.0 routing_S-E-sedan.0" vType="sedan" speedFactor="0.89" vaporized=""/>
    <tripinfo id="N-S-sedan.0" depart="3.00" departLane="+N_1" departPos="5.10" departSpeed="0.00" departDelay="3.00" arrival="39.00" arrivalLane="-S_2" arrivalPos="100.00" arrivalSpeed="12.52" duration="36.00" routeLength="394.90" waitingTime="0.00" waitingCount="0" stopTime="0.00" timeLoss="5.07" rerouteNo="1" devices="tripinfo_N-S-sedan.0 routing_N-S-sedan.0" vType="sedan" speedFactor="0.94" vaporized=""/>
    <tripinfo id="S-E-sedan.1" depart="12.00" departLane="+S_1" departPos="5.10" departSpeed="0.00" departDelay="11.00" arrival="40.00" arrivalLane="-E_1" arrivalPos="100.00" arrivalSpeed="15.87" duration="28.00" routeLength="376.59" waitingTime="0.00" waitingCount="0" stopTime="0.00" timeLoss="4.50" rerouteNo="1" devices="tripinfo_S-E-sedan.1 routing_S-E-sedan.1" vType="sedan" speedFactor="1.16" vaporized=""/>
    <tripinfo id="S-W-sedan.0" depart="6.00" departLane="+S_1" departPos="5.10" departSpeed="0.00" departDelay="6.00" arrival="42.00" arrivalLane="-W_2" arrivalPos="100.00" arrivalSpeed="12.12" duration="36.00" routeLength="394.90" waitingTime="0.00" waitingCount="0" stopTime="0.00" timeLoss="5.61" rerouteNo="1" devices="tripinfo_S-W-sedan.0 routing_S-W-sedan.0" vType="sedan" speedFactor="0.94" vaporized=""/>
    <tripinfo id="N-S-sedan.1" depart="12.00" departLane="+N_1" departPos="5.10" departSpeed="0.00" departDelay="11.00" arrival="44.00" arrivalLane="-S_2" arrivalPos="100.00" arrivalSpeed="15.52" duration="32.00" routeLength="394.90" waitingTime="0.00" waitingCount="0" stopTime="0.00" timeLoss="6.40" rerouteNo="1" devices="tripinfo_N-S-sedan.1 routing_N-S-sedan.1" vType="sedan" speedFactor="1.12" vaporized=""/>
    <tripinfo id="S-N-sedan.1" depart="9.00" departLane="+S_1" departPos="5.10" departSpeed="0.00" departDelay="8.00" arrival="44.00" arrivalLane="-N_2" arrivalPos="100.00" arrivalSpeed="12.46" duration="35.00" routeLength="394.90" waitingTime="0.00" waitingCount="0" stopTime="0.00" timeLoss="4.32" rerouteNo="1" devices="tripinfo_S-N-sedan.1 routing_S-N-sedan.1" vType="sedan" speedFactor="0.94" vaporized=""/>
    <tripinfo id="N-E-sedan.1" depart="9.00" departLane="+N_1" departPos="5.10" departSpeed="0.00" departDelay="8.00" arrival="45.00" arrivalLane="-E_2" arrivalPos="100.00" arrivalSpeed="13.72" duration="36.00" routeLength="394.90" waitingTime="0.00" waitingCount="0" stopTime="0.00" timeLoss="7.93" rerouteNo="1" devices="tripinfo_N-E-sedan.1 routing_N-E-sedan.1" vType="sedan" speedFactor="1.05" vaporized=""/>
    <tripinfo id="E-N-sedan.1" depart="9.00" departLane="+E_1" departPos="5.10" departSpeed="0.00" departDelay="8.00" arrival="46.00" arrivalLane="-N_1" arrivalPos="100.00" arrivalSpeed="12.41" duration="37.00" routeLength="376.59" waitingTime="0.00" waitingCount="0" stopTime="0.00" timeLoss="7.08" rerouteNo="1" devices="tripinfo_E-N-sedan.1 routing_E-N-sedan.1" vType="sedan" speedFactor="0.93" vaporized=""/>
    <tripinfo id="N-W-sedan.1" depart="16.00" departLane="+N_1" departPos="5.10" departSpeed="0.00" departDelay="15.00" arrival="48.00" arrivalLane="-W_1" arrivalPos="100.00" arrivalSpeed="13.53" duration="32.00" routeLength="376.59" waitingTime="0.00" waitingCount="0" stopTime="0.00" timeLoss="4.32" rerouteNo="1" devices="tripinfo_N-W-sedan.1 routing_N-W-sedan.1" vType="sedan" speedFactor="0.99" vaporized=""/>
    <tripinfo id="S-N-sedan.2" depart="18.00" departLane="+S_1" departPos="5.10" departSpeed="0.00" departDelay="16.00" arrival="48.00" arrivalLane="-N_2" arrivalPos="100.00" arrivalSpeed="15.33" duration="30.00" routeLength="394.90" waitingTime="0.00" waitingCount="0" stopTime="0.00" timeLoss="5.25" rerouteNo="1" devices="tripinfo_S-N-sedan.2 routing_S-N-sedan.2" vType="sedan" speedFactor="1.18" vaporized=""/>
    <tripinfo id="S-W-sedan.1" depart="15.00" departLane="+S_1" departPos="5.10" departSpeed="0.00" departDelay="14.00" arrival="49.00" arrivalLane="-W_2" arrivalPos="100.00" arrivalSpeed="12.99" duration="34.00" routeLength="394.90" waitingTime="0.00" waitingCount="0" stopTime="0.00" timeLoss="5.86" rerouteNo="1" devices="tripinfo_S-W-sedan.1 routing_S-W-sedan.1" vType="sedan" speedFactor="1.02" vaporized=""/>
    <tripinfo id="W-S-sedan.1" depart="15.00" departLane="+W_1" departPos="5.10" departSpeed="0.00" departDelay="14.00" arrival="50.00" arrivalLane="-S_1" arrivalPos="100.00" arrivalSpeed="11.60" duration="35.00" routeLength="376.59" waitingTime="0.00" waitingCount="0" stopTime="0.00" timeLoss="3.92" rerouteNo="1" devices="tripinfo_W-S-sedan.1 routing_W-S-sedan.1" vType="sedan" speedFactor="0.89" vaporized=""/>
    <tripinfo id="S-E-sedan.2" depart="21.00" departLane="+S_1" departPos="5.10" departSpeed="0.00" departDelay="19.00" arrival="50.00" arrivalLane="-E_1" arrivalPos="100.00" arrivalSpeed="15.08" duration="29.00" routeLength="376.59" waitingTime="0.00" waitingCount="0" stopTime="0.00" timeLoss="5.33" rerouteNo="1" devices="tripinfo_S-E-sedan.2 routing_S-E-sedan.2" vType="sedan" speedFactor="1.15" vaporized=""/>
    <tripinfo id="E-N-sedan.2" depart="18.00" departLane="+E_1" departPos="5.10" departSpeed="0.00" departDelay="16.00" arrival="53.00" arrivalLane="-N_1" arrivalPos="100.00" arrivalSpeed="12.05" duration="35.00" routeLength="376.59" waitingTime="0.00" waitingCount="0" stopTime="0.00" timeLoss="5.96" rerouteNo="1" devices="tripinfo_E-N-sedan.2 routing_E-N-sedan.2" vType="sedan" speedFactor="0.95" vaporized=""/>
    <tripinfo id="W-S-sedan.2" depart="24.00" departLane="+W_1" departPos="5.10" departSpeed="0.00" departDelay="22.00" arrival="56.00" arrivalLane="-S_1" arrivalPos="100.00" arrivalSpeed="14.15" duration="32.00" routeLength="376.59" waitingTime="0.00" waitingCount="0" stopTime="0.00" timeLoss="4.76" rerouteNo="1" devices="tripinfo_W-S-sedan.2 routing_W-S-sedan.2" vType="sedan" speedFactor="1.02" vaporized=""/>
    <tripinfo id="N-E-sedan.2" depart="19.00" departLane="+N_1" departPos="5.10" departSpeed="0.00" departDelay="17.00" arrival="60.00" arrivalLane="-E_2" arrivalPos="100.00" arrivalSpeed="10.30" duration="41.00" routeLength="394.90" waitingTime="0.00" waitingCount="0" stopTime="0.00" timeLoss="6.00" rerouteNo="1" devices="tripinfo_N-E-sedan.2 routing_N-E-sedan.2" vType="sedan" speedFactor="0.83" vaporized=""/>
    <tripinfo id="N-W-sedan.2" depart="25.00" departLane="+N_1" departPos="5.10" departSpeed="0.00" departDelay="23.00" arrival="60.00" arrivalLane="-W_1" arrivalPos="100.00" arrivalSpeed="11.84" duration="35.00" routeLength="376.59" waitingTime="0.00" waitingCount="0" stopTime="0.00" timeLoss="4.72" rerouteNo="1" devices="tripinfo_N-W-sedan.2 routing_N-W-sedan.2" vType="sedan" speedFactor="0.92" vaporized=""/>
    <tripinfo id="E-N-sedan.3" depart="27.00" departLane="+E_1" departPos="5.10" departSpeed="0.00" departDelay="24.00" arrival="62.00" arrivalLane="-N_1" arrivalPos="100.00" arrivalSpeed="12.29" duration="35.00" routeLength="376.59" waitingTime="0.00" waitingCount="0" stopTime="0.00" timeLoss="4.05" rerouteNo="1" devices="tripinfo_E-N-sedan.3 routing_E-N-sedan.3" vType="sedan" speedFactor="0.90" vaporized=""/>
    <tripinfo id="S-E-sedan.3" depart="30.00" departLane="+S_1" departPos="5.10" departSpeed="0.00" departDelay="27.00" arrival="62.00" arrivalLane="-E_1" arrivalPos="100.00" arrivalSpeed="14.35" duration="32.00" routeLength="376.59" waitingTime="0.00" waitingCount="0" stopTime="0.00" timeLoss="4.92" rerouteNo="1" devices="tripinfo_S-E-sedan.3 routing_S-E-sedan.3" vType="sedan" speedFactor="1.04" vaporized=""/>
    <tripinfo id="E-S-sedan.0" depart="3.00" departLane="+E_1" departPos="5.10" departSpeed="0.00" departDelay="3.00" arrival="64.00" arrivalLane="-S_2" arrivalPos="100.00" arrivalSpeed="13.42" duration="61.00" routeLength="394.90" waitingTime="23.00" waitingCount="2" stopTime="0.00" timeLoss="33.35" rerouteNo="1" devices="tripinfo_E-S-sedan.0 routing_E-S-sedan.0" vType="sedan" speedFactor="1.03" vaporized=""/>
    <tripinfo id="E-N-sedan.4" depart="36.00" departLane="+E_1" departPos="5.10" departSpeed="0.00" departDelay="32.00" arrival="64.00" arrivalLane="-N_1" arrivalPos="100.00" arrivalSpeed="15.09" duration="28.00" routeLength="376.59" waitingTime="0.00" waitingCount="0" stopTime="0.00" timeLoss="4.77" rerouteNo="1" devices="tripinfo_E-N-sedan.4 routing_E-N-sedan.4" vType="sedan" speedFactor="1.17" vaporized=""/>
    <tripinfo id="E-W-sedan.0" depart="6.00" departLane="+E_1" departPos="5.10" departSpeed="0.00" departDelay="6.00" arrival="65.00" arrivalLane="-W_2" arrivalPos="100.00" arrivalSpeed="10.75" duration="59.00" routeLength="394.90" waitingTime="15.00" waitingCount="1" stopTime="0.00" timeLoss="24.37" rerouteNo="1" devices="tripinfo_E-W-sedan.0 routing_E-W-sedan.0" vType="sedan" speedFactor="0.83" vaporized=""/>
    <tripinfo id="W-N-sedan.0" depart="0.00" departLane="+W_1" departPos="5.10" departSpeed="0.00" departDelay="0.00" arrival="65.00" arrivalLane="-N_2" arrivalPos="100.00" arrivalSpeed="11.55" duration="65.00" routeLength="394.90" waitingTime="21.00" waitingCount="1" stopTime="0.00" timeLoss="31.25" rerouteNo="1" devices="tripinfo_W-N-sedan.0 routing_W-N-sedan.0" vType="sedan" speedFactor="0.86" vaporized=""/>
    <tripinfo id="W-E-sedan.0" depart="3.00" departLane="+W_1" departPos="5.10" departSpeed="0.00" departDelay="3.00" arrival="65.00" arrivalLane="-E_2" arrivalPos="100.00" arrivalSpeed="14.34" duration="62.00" routeLength="394.90" waitingTime="20.00" waitingCount="1" stopTime="0.00" timeLoss="35.02" rerouteNo="1" devices="tripinfo_W-E-sedan.0 routing_W-E-sedan.0" vType="sedan" speedFactor="1.09" vaporized=""/>
    <tripinfo id="E-W-sedan.1" depart="15.00" departLane="+E_1" departPos="5.10" departSpeed="0.00" departDelay="14.00" arrival="66.00" arrivalLane="-W_1" arrivalPos="100.00" arrivalSpeed="12.66" duration="51.00" routeLength="394.90" waitingTime="6.00" waitingCount="1" stopTime="0.00" timeLoss="19.95" rerouteNo="1" devices="tripinfo_E-W-sedan.1 routing_E-W-sedan.1" vType="sedan" speedFactor="0.94" vaporized=""/>
    <tripinfo id="W-N-sedan.1" depart="9.00" departLane="+W_1" departPos="5.10" departSpeed="0.00" departDelay="8.00" arrival="67.00" arrivalLane="-N_2" arrivalPos="100.00" arrivalSpeed="12.88" duration="58.00" routeLength="394.90" waitingTime="19.00" waitingCount="1" stopTime="0.00" timeLoss="29.84" rerouteNo="1" devices="tripinfo_W-N-sedan.1 routing_W-N-sedan.1" vType="sedan" speedFactor="1.01" vaporized=""/>
    <tripinfo id="N-W-sedan.3" depart="34.00" departLane="+N_1" departPos="5.10" departSpeed="0.00" departDelay="31.00" arrival="67.00" arrivalLane="-W_1" arrivalPos="100.00" arrivalSpeed="13.26" duration="33.00" routeLength="376.59" waitingTime="0.00" waitingCount="0" stopTime="0.00" timeLoss="8.27" rerouteNo="1" devices="tripinfo_N-W-sedan.3 routing_N-W-sedan.3" vType="sedan" speedFactor="1.10" vaporized=""/>
    <tripinfo id="E-S-sedan.1" depart="12.00" departLane="+E_1" departPos="5.10" departSpeed="0.00" departDelay="11.00" arrival="68.00" arrivalLane="-S_2" arrivalPos="100.00" arrivalSpeed="11.74" duration="56.00" routeLength="394.90" waitingTime="12.00" waitingCount="1" stopTime="0.00" timeLoss="23.58" rerouteNo="1" devices="tripinfo_E-S-sedan.1 routing_E-S-sedan.1" vType="sedan" speedFactor="0.88" vaporized=""/>
    <tripinfo id="W-S-sedan.3" depart="33.00" departLane="+W_1" departPos="5.10" departSpeed="0.00" departDelay="30.00" arrival="68.00" arrivalLane="-S_1" arrivalPos="100.00" arrivalSpeed="12.36" duration="35.00" routeLength="376.59" waitingTime="0.00" waitingCount="0" stopTime="0.00" timeLoss="4.15" rerouteNo="1" devices="tripinfo_W-S-sedan.3 routing_W-S-sedan.3" vType="sedan" speedFactor="0.90" vaporized=""/>
    <tripinfo id="W-E-sedan.1" depart="12.00" departLane="+W_1" departPos="5.10" departSpeed="0.00" departDelay="11.00" arrival="70.00" arrivalLane="-E_2" arrivalPos="100.00" arrivalSpeed="12.39" duration="58.00" routeLength="394.90" waitingTime="16.00" waitingCount="1" stopTime="0.00" timeLoss="28.39" rerouteNo="1" devices="tripinfo_W-E-sedan.1 routing_W-E-sedan.1" vType="sedan" speedFactor="0.97" vaporized=""/>
    <tripinfo id="S-E-sedan.4" depart="39.00" departLane="+S_1" departPos="5.10" departSpeed="0.00" departDelay="35.00" arrival="72.00" arrivalLane="-E_1" arrivalPos="100.00" arrivalSpeed="12.85" duration="33.00" routeLength="376.59" waitingTime="0.00" waitingCount="0" stopTime="0.00" timeLoss="5.18" rerouteNo="1" devices="tripinfo_S-E-sedan.4 routing_S-E-sedan.4" vType="sedan" speedFactor="1.00" vaporized=""/>
    <tripinfo id="E-W-sedan.3" depart="33.00" departLane="+E_1" departPos="5.10" departSpeed="0.00" departDelay="30.00" arrival="73.00" arrivalLane="-W_2" arrivalPos="100.00" arrivalSpeed="13.07" duration="40.00" routeLength="394.90" waitingTime="0.00" waitingCount="0" stopTime="0.00" timeLoss="9.53" rerouteNo="1" devices="tripinfo_E-W-sedan.3 routing_E-W-sedan.3" vType="sedan" speedFactor="0.96" vaporized=""/>
    <tripinfo id="E-W-sedan.4" depart="42.00" departLane="+E_1" departPos="5.10" departSpeed="0.00" departDelay="38.00" arrival="74.00" arrivalLane="-W_2" arrivalPos="100.00" arrivalSpeed="14.85" duration="32.00" routeLength="394.90" waitingTime="0.00" waitingCount="0" stopTime="0.00" timeLoss="5.88" rerouteNo="1" devices="tripinfo_E-W-sedan.4 routing_E-W-sedan.4" vType="sedan" speedFactor="1.10" vaporized=""/>
    <tripinfo id="W-E-sedan.4" depart="39.00" departLane="+W_1" departPos="5.10" departSpeed="0.00" departDelay="35.00" arrival="74.00" arrivalLane="-E_1" arrivalPos="100.00" arrivalSpeed="14.12" duration="35.00" routeLength="394.90" waitingTime="0.00" waitingCount="0" stopTime="0.00" timeLoss="6.35" rerouteNo="1" devices="tripinfo_W-E-sedan.4 routing_W-E-sedan.4" vType="sedan" speedFactor="1.02" vaporized=""/>
    <tripinfo id="W-S-sedan.4" depart="42.00" departLane="+W_1" departPos="5.10" departSpeed="0.00" departDelay="38.00" arrival="75.00" arrivalLane="-S_1" arrivalPos="100.00" arrivalSpeed="12.52" duration="33.00" routeLength="376.59" waitingTime="0.00" waitingCount="0" stopTime="0.00" timeLoss="4.24" rerouteNo="1" devices="tripinfo_W-S-sedan.4 routing_W-S-sedan.4" vType="sedan" speedFactor="0.97" vaporized=""/>
    <tripinfo id="E-S-sedan.2" depart="21.00" departLane="+E_1" departPos="5.10" departSpeed="0.00" departDelay="19.00" arrival="76.00" arrivalLane="-S_2" arrivalPos="100.00" arrivalSpeed="14.91" duration="55.00" routeLength="394.90" waitingTime="12.00" waitingCount="2" stopTime="0.00" timeLoss="29.05" rerouteNo="1" devices="tripinfo_E-S-sedan.2 routing_E-S-sedan.2" vType="sedan" speedFactor="1.13" vaporized=""/>
    <tripinfo id="W-N-sedan.2" depart="18.00" departLane="+W_1" departPos="5.10" departSpeed="0.00" departDelay="16.00" arrival="76.00" arrivalLane="-N_2" arrivalPos="100.00" arrivalSpeed="16.26" duration="58.00" routeLength="394.90" waitingTime="17.00" waitingCount="2" stopTime="0.00" timeLoss="33.23" rerouteNo="1" devices="tripinfo_W-N-sedan.2 routing_W-N-sedan.2" vType="sedan" speedFactor="1.17" vaporized=""/>
    <tripinfo id="W-E-sedan.2" depart="21.00" departLane="+W_1" departPos="5.10" departSpeed="0.00" departDelay="19.00" arrival="77.00" arrivalLane="-E_2" arrivalPos="100.00" arrivalSpeed="12.84" duration="56.00" routeLength="394.90" waitingTime="11.00" waitingCount="1" stopTime="0.00" timeLoss="27.42" rerouteNo="1" devices="tripinfo_W-E-sedan.2 routing_W-E-sedan.2" vType="sedan" speedFactor="0.99" vaporized=""/>
    <tripinfo id="E-N-sedan.5" depart="45.00" departLane="+E_1" departPos="5.10" departSpeed="0.00" departDelay="40.00" arrival="78.00" arrivalLane="-N_1" arrivalPos="100.00" arrivalSpeed="12.90" duration="33.00" routeLength="376.59" waitingTime="0.00" waitingCount="0" stopTime="0.00" timeLoss="5.05" rerouteNo="1" devices="tripinfo_E-N-sedan.5 routing_E-N-sedan.5" vType="sedan" speedFactor="0.99" vaporized=""/>
    <tripinfo id="E-W-sedan.2" depart="24.00" departLane="+E_1" departPos="5.10" departSpeed="0.00" departDelay="22.00" arrival="79.00" arrivalLane="-W_2" arrivalPos="100.00" arrivalSpeed="11.78" duration="55.00" routeLength="394.90" waitingTime="7.00" waitingCount="2" stopTime="0.00" timeLoss="24.39" rerouteNo="1" devices="tripinfo_E-W-sedan.2 routing_E-W-sedan.2" vType="sedan" speedFactor="0.93" vaporized=""/>
    <tripinfo id="W-N-sedan.3" depart="27.00" departLane="+W_1" departPos="5.10" departSpeed="0.00" departDelay="24.00" arrival="79.00" arrivalLane="-N_2" arrivalPos="100.00" arrivalSpeed="14.82" duration="52.00" routeLength="394.90" waitingTime="7.00" waitingCount="1" stopTime="0.00" timeLoss="25.63" rerouteNo="1" devices="tripinfo_W-N-sedan.3 routing_W-N-sedan.3" vType="sedan" speedFactor="1.09" vaporized=""/>
    <tripinfo id="N-W-sedan.4" depart="43.00" departLane="+N_1" departPos="5.10" departSpeed="0.00" departDelay="39.00" arrival="80.00" arrivalLane="-W_1" arrivalPos="100.00" arrivalSpeed="10.85" duration="37.00" routeLength="376.59" waitingTime="0.00" waitingCount="0" stopTime="0.00" timeLoss="4.89" rerouteNo="1" devices="tripinfo_N-W-sedan.4 routing_N-W-sedan.4" vType="sedan" speedFactor="0.85" vaporized=""/>
    <tripinfo id="W-E-sedan.3" depart="30.00" departLane="+W_1" departPos="5.10" departSpeed="0.00" departDelay="27.00" arrival="82.00" arrivalLane="-E_2" arrivalPos="100.00" arrivalSpeed="13.59" duration="52.00" routeLength="394.90" waitingTime="4.00" waitingCount="1" stopTime="0.00" timeLoss="23.48" rerouteNo="1" devices="tripinfo_W-E-sedan.3 routing_W-E-sedan.3" vType="sedan" speedFactor="1.00" vaporized=""/>
    <tripinfo id="W-N-sedan.4" depart="36.00" departLane="+W_1" departPos="5.10" departSpeed="0.00" departDelay="32.00" arrival="83.00" arrivalLane="-N_2" arrivalPos="100.00" arrivalSpeed="15.42" duration="47.00" routeLength="394.90" waitingTime="1.00" waitingCount="1" stopTime="0.00" timeLoss="21.70" rerouteNo="1" devices="tripinfo_W-N-sedan.4 routing_W-N-sedan.4" vType="sedan" speedFactor="1.14" vaporized=""/>
    <tripinfo id="S-E-sedan.5" depart="48.00" departLane="+S_1" departPos="5.10" departSpeed="0.00" departDelay="43.00" arrival="83.00" arrivalLane="-E_1" arrivalPos="100.00" arrivalSpeed="12.14" duration="35.00" routeLength="376.59" waitingTime="0.00" waitingCount="0" stopTime="0.00" timeLoss="5.00" rerouteNo="1" devices="tripinfo_S-E-sedan.5 routing_S-E-sedan.5" vType="sedan" speedFactor="0.91" vaporized=""/>
    <tripinfo id="N-W-sedan.5" depart="52.00" departLane="+N_1" departPos="5.10" departSpeed="0.00" departDelay="47.00" arrival="84.00" arrivalLane="-W_1" arrivalPos="100.00" arrivalSpeed="14.07" duration="32.00" routeLength="376.59" waitingTime="0.00" waitingCount="0" stopTime="0.00" timeLoss="4.58" rerouteNo="1" devices="tripinfo_N-W-sedan.5 routing_N-W-sedan.5" vType="sedan" speedFactor="1.02" vaporized=""/>
    <tripinfo id="W-S-sedan.5" depart="51.00" departLane="+W_1" departPos="5.10" departSpeed="0.00" departDelay="46.00" arrival="84.00" arrivalLane="-S_1" arrivalPos="100.00" arrivalSpeed="13.30" duration="33.00" routeLength="376.59" waitingTime="0.00" waitingCount="0" stopTime="0.00" timeLoss="4.84" rerouteNo="1" devices="tripinfo_W-S-sedan.5 routing_W-S-sedan.5" vType="sedan" speedFactor="0.97" vaporized=""/>
    <tripinfo id="E-S-sedan.3" depart="30.00" departLane="+E_1" departPos="5.10" departSpeed="0.00" departDelay="27.00" arrival="85.00" arrivalLane="-S_2" arrivalPos="100.00" arrivalSpeed="13.79" duration="55.00" routeLength="394.90" waitingTime="4.00" waitingCount="3" stopTime="0.00" timeLoss="26.57" rerouteNo="1" devices="tripinfo_E-S-sedan.3 routing_E-S-sedan.3" vType="sedan" speedFactor="1.03" vaporized=""/>
    <tripinfo id="E-N-sedan.6" depart="54.00" departLane="+E_1" departPos="5.10" departSpeed="0.00" departDelay="48.00" arrival="86.00" arrivalLane="-N_1" arrivalPos="100.00" arrivalSpeed="13.00" duration="32.00" routeLength="376.59" waitingTime="0.00" waitingCount="0" stopTime="0.00" timeLoss="4.17" rerouteNo="1" devices="tripinfo_E-N-sedan.6 routing_E-N-sedan.6" vType="sedan" speedFactor="0.98" vaporized=""/>
    <tripinfo id="S-E-sedan.6" depart="57.00" departLane="+S_1" departPos="5.10" departSpeed="0.00" departDelay="51.00" arrival="87.00" arrivalLane="-E_1" arrivalPos="100.00" arrivalSpeed="15.04" duration="30.00" routeLength="376.59" waitingTime="0.00" waitingCount="0" stopTime="0.00" timeLoss="4.41" rerouteNo="1" devices="tripinfo_S-E-sedan.6 routing_S-E-sedan.6" vType="sedan" speedFactor="1.09" vaporized=""/>
    <tripinfo id="W-N-sedan.5" depart="45.00" departLane="+W_1" departPos="5.10" departSpeed="0.00" departDelay="40.00" arrival="88.00" arrivalLane="-N_2" arrivalPos="100.00" arrivalSpeed="13.90" duration="43.00" routeLength="394.90" waitingTime="0.00" waitingCount="0" stopTime="0.00" timeLoss="14.34" rerouteNo="1" devices="tripinfo_W-N-sedan.5 routing_W-N-sedan.5" vType="sedan" speedFactor="1.02" vaporized=""/>
    <tripinfo id="W-E-sedan.5" depart="48.00" departLane="+W_1" departPos="5.10" departSpeed="0.00" departDelay="43.00" arrival="89.00" arrivalLane="-E_2" arrivalPos="100.00" arrivalSpeed="13.35" duration="41.00" routeLength="394.90" waitingTime="0.00" waitingCount="0" stopTime="0.00" timeLoss="12.95" rerouteNo="1" devices="tripinfo_W-E-sedan.5 routing_W-E-sedan.5" vType="sedan" speedFactor="1.02" vaporized=""/>
    <tripinfo id="E-W-sedan.5" depart="51.00" departLane="+E_1" departPos="5.10" departSpeed="0.00" departDelay="46.00" arrival="93.00" arrivalLane="-W_2" arrivalPos="100.00" arrivalSpeed="11.98" duration="42.00" routeLength="394.90" waitingTime="0.00" waitingCount="0" stopTime="0.00" timeLoss="8.93" rerouteNo="1" devices="tripinfo_E-W-sedan.5 routing_E-W-sedan.5" vType="sedan" speedFactor="0.88" vaporized=""/>
    <tripinfo id="E-W-sedan.6" depart="60.00" departLane="+E_1" departPos="5.10" departSpeed="0.00" departDelay="54.00" arrival="93.00" arrivalLane="-W_1" arrivalPos="100.00" arrivalSpeed="13.58" duration="33.00" routeLength="394.90" waitingTime="0.00" waitingCount="0" stopTime="0.00" timeLoss="3.95" rerouteNo="1" devices="tripinfo_E-W-sedan.6 routing_E-W-sedan.6" vType="sedan" speedFactor="0.98" vaporized=""/>
    <tripinfo id="W-S-sedan.6" depart="60.00" departLane="+W_1" departPos="5.10" departSpeed="0.00" departDelay="54.00" arrival="93.00" arrivalLane="-S_1" arrivalPos="100.00" arrivalSpeed="12.98" duration="33.00" routeLength="376.59" waitingTime="0.00" waitingCount="0" stopTime="0.00" timeLoss="4.02" rerouteNo="1" devices="tripinfo_W-S-sedan.6 routing_W-S-sedan.6" vType="sedan" speedFactor="0.97" vaporized=""/>
    <tripinfo id="E-N-sedan.7" depart="63.00" departLane="+E_1" departPos="5.10" departSpeed="0.00" departDelay="56.00" arrival="94.00" arrivalLane="-N_1" arrivalPos="100.00" arrivalSpeed="13.67" duration="31.00" routeLength="376.59" waitingTime="0.00" waitingCount="0" stopTime="0.00" timeLoss="4.46" rerouteNo="1" devices="tripinfo_E-N-sedan.7 routing_E-N-sedan.7" vType="sedan" speedFactor="1.04" vaporized=""/>
    <tripinfo id="N-W-sedan.6" depart="61.00" departLane="+N_1" departPos="5.10" departSpeed="0.00" departDelay="55.00" arrival="96.00" arrivalLane="-W_1" arrivalPos="100.00" arrivalSpeed="13.02" duration="35.00" routeLength="376.59" waitingTime="0.00" waitingCount="0" stopTime="0.00" timeLoss="6.30" rerouteNo="1" devices="tripinfo_N-W-sedan.6 routing_N-W-sedan.6" vType="sedan" speedFactor="0.96" vaporized=""/>
    <tripinfo id="W-N-sedan.6" depart="54.00" departLane="+W_1" departPos="5.10" departSpeed="0.00" departDelay="48.00" arrival="96.00" arrivalLane="-N_2" arrivalPos="100.00" arrivalSpeed="13.36" duration="42.00" routeLength="394.90" waitingTime="1.00" waitingCount="1" stopTime="0.00" timeLoss="13.44" rerouteNo="1" devices="tripinfo_W-N-sedan.6 routing_W-N-sedan.6" vType="sedan" speedFactor="1.00" vaporized=""/>
    <tripinfo id="W-E-sedan.6" depart="57.00" departLane="+W_1" departPos="5.10" departSpeed="0.00" departDelay="51.00" arrival="97.00" arrivalLane="-E_1" arrivalPos="100.00" arrivalSpeed="13.18" duration="40.00" routeLength="394.90" waitingTime="0.00" waitingCount="0" stopTime="0.00" timeLoss="11.45" rerouteNo="1" devices="tripinfo_W-E-sedan.6 routing_W-E-sedan.6" vType="sedan" speedFactor="1.02" vaporized=""/>
    <tripinfo id="W-E-sedan.7" depart="66.00" departLane="+W_1" departPos="5.10" departSpeed="0.00" departDelay="59.00" arrival="99.00" arrivalLane="-E_2" arrivalPos="100.00" arrivalSpeed="14.18" duration="33.00" routeLength="394.90" waitingTime="0.00" waitingCount="0" stopTime="0.00" timeLoss="6.32" rerouteNo="1" devices="tripinfo_W-E-sedan.7 routing_W-E-sedan.7" vType="sedan" speedFactor="1.09" vaporized=""/>
    <tripinfo id="W-S-sedan.7" depart="69.00" departLane="+W_1" departPos="5.10" departSpeed="0.00" departDelay="62.00" arrival="99.00" arrivalLane="-S_1" arrivalPos="100.00" arrivalSpeed="13.45" duration="30.00" routeLength="376.59" waitingTime="0.00" waitingCount="0" stopTime="0.00" timeLoss="4.31" rerouteNo="1" devices="tripinfo_W-S-sedan.7 routing_W-S-sedan.7" vType="sedan" speedFactor="1.06" vaporized=""/>
    <tripinfo id="W-N-sedan.7" depart="63.00" departLane="+W_1" departPos="5.10" departSpeed="0.00" departDelay="56.00" arrival="100.00" arrivalLane="-N_2" arrivalPos="100.00" arrivalSpeed="12.00" duration="37.00" routeLength="394.90" waitingTime="0.00" waitingCount="0" stopTime="0.00" timeLoss="5.33" rerouteNo="1" devices="tripinfo_W-N-sedan.7 routing_W-N-sedan.7" vType="sedan" speedFactor="0.92" vaporized=""/>
    <tripinfo id="N-W-sedan.7" depart="70.00" departLane="+N_1" departPos="5.10" departSpeed="0.00" departDelay="63.00" arrival="102.00" arrivalLane="-W_1" arrivalPos="100.00" arrivalSpeed="13.08" duration="32.00" routeLength="376.59" waitingTime="0.00" waitingCount="0" stopTime="0.00" timeLoss="4.81" rerouteNo="1" devices="tripinfo_N-W-sedan.7 routing_N-W-sedan.7" vType="sedan" speedFactor="1.00" vaporized=""/>
    <tripinfo id="S-E-sedan.7" depart="66.00" departLane="+S_1" departPos="5.10" departSpeed="0.00" departDelay="59.00" arrival="102.00" arrivalLane="-E_1" arrivalPos="100.00" arrivalSpeed="12.23" duration="36.00" routeLength="376.59" waitingTime="0.00" waitingCount="0" stopTime="0.00" timeLoss="4.65" rerouteNo="1" devices="tripinfo_S-E-sedan.7 routing_S-E-sedan.7" vType="sedan" speedFactor="0.89" vaporized=""/>