<?xml version="1.0" encoding="UTF-8"?>

<!-- generated on 2023-04-09 19:24:11 by Eclipse SUMO GUI Version 1.15.0
<configuration xmlns:xsi="http://www.w3.org/2001/XMLSchema-instance" xsi:noNamespaceSchemaLocation="http://sumo.dlr.de/xsd/sumoConfiguration.xsd">

    <input>
        <net-file value="Z:\Users\708891\Desktop\AP research\Simulations\cloverleaf.net.xml"/>
        <route-files value="Z:\Users\708891\Desktop\AP research\Simulations\unifiedDistribution.rou.xml"/>
    </input>

    <output>
        <tripinfo-output value="Z:\Users\708891\Desktop\AP research\Simulations\output\cloverleaf\cloverleafTripinfo4.xml"/>
        <collision-output value="Z:\Users\708891\Desktop\AP research\Simulations\output\cloverleaf\cloverleafCollision4.xml"/>
        <statistic-output value="Z:\Users\708891\Desktop\AP research\Simulations\output\cloverleaf\cloverleafNetworkStats4.xml"/>
    </output>

</configuration>
-->

<tripinfos xmlns:xsi="http://www.w3.org/2001/XMLSchema-instance" xsi:noNamespaceSchemaLocation="http://sumo.dlr.de/xsd/tripinfo_file.xsd">
    <tripinfo id="E-N-sedan.0" depart="0.00" departLane="+E_1" departPos="5.10" departSpeed="0.00" departDelay="0.00" arrival="27.00" arrivalLane="-N_1" arrivalPos="100.00" arrivalSpeed="14.74" duration="27.00" routeLength="336.32" waitingTime="0.00" waitingCount="0" stopTime="0.00" timeLoss="4.26" rerouteNo="1" devices="tripinfo_E-N-sedan.0 routing_E-N-sedan.0" vType="sedan" speedFactor="1.08" vaporized=""/>
    <tripinfo id="S-N-sedan.0" depart="0.00" departLane="+S_1" departPos="5.10" departSpeed="0.00" departDelay="0.00" arrival="31.00" arrivalLane="-N_2" arrivalPos="100.00" arrivalSpeed="13.33" duration="31.00" routeLength="394.90" waitingTime="0.00" waitingCount="0" stopTime="0.00" timeLoss="3.67" rerouteNo="1" devices="tripinfo_S-N-sedan.0 routing_S-N-sedan.0" vType="sedan" speedFactor="1.05" vaporized=""/>
    <tripinfo id="W-E-sedan.0" depart="3.00" departLane="+W_1" departPos="5.10" departSpeed="0.00" departDelay="3.00" arrival="34.00" arrivalLane="-E_2" arrivalPos="100.00" arrivalSpeed="13.98" duration="31.00" routeLength="394.90" waitingTime="0.00" waitingCount="0" stopTime="0.00" timeLoss="4.86" rerouteNo="1" devices="tripinfo_W-E-sedan.0 routing_W-E-sedan.0" vType="sedan" speedFactor="1.09" vaporized=""/>
    <tripinfo id="W-S-sedan.0" depart="6.00" departLane="+W_1" departPos="5.10" departSpeed="0.00" departDelay="6.00" arrival="34.00" arrivalLane="-S_1" arrivalPos="100.00" arrivalSpeed="13.70" duration="28.00" routeLength="336.32" waitingTime="0.00" waitingCount="0" stopTime="0.00" timeLoss="3.99" rerouteNo="1" devices="tripinfo_W-S-sedan.0 routing_W-S-sedan.0" vType="sedan" speedFactor="1.03" vaporized=""/>
    <tripinfo id="N-W-sedan.0" depart="6.00" departLane="+N_1" departPos="5.10" departSpeed="0.00" departDelay="6.00" arrival="35.00" arrivalLane="-W_1" arrivalPos="100.00" arrivalSpeed="13.32" duration="29.00" routeLength="336.32" waitingTime="0.00" waitingCount="0" stopTime="0.00" timeLoss="4.37" rerouteNo="1" devices="tripinfo_N-W-sedan.0 routing_N-W-sedan.0" vType="sedan" speedFactor="1.01" vaporized=""/>
    <tripinfo id="S-E-sedan.0" depart="3.00" departLane="+S_1" departPos="5.10" departSpeed="0.00" departDelay="3.00" arrival="35.00" arrivalLane="-E_1" arrivalPos="100.00" arrivalSpeed="12.18" duration="32.00" routeLength="336.32" waitingTime="0.00" waitingCount="0" stopTime="0.00" timeLoss="3.86" rerouteNo="1" devices="tripinfo_S-E-sedan.0 routing_S-E-sedan.0" vType="sedan" speedFactor="0.89" vaporized=""/>
    <tripinfo id="S-E-sedan.1" depart="11.00" departLane="+S_1" departPos="5.10" departSpeed="0.00" departDelay="10.00" arrival="36.00" arrivalLane="-E_1" arrivalPos="100.00" arrivalSpeed="15.87" duration="25.00" routeLength="336.32" waitingTime="0.00" waitingCount="0" stopTime="0.00" timeLoss="4.09" rerouteNo="1" devices="tripinfo_S-E-sedan.1 routing_S-E-sedan.1" vType="sedan" speedFactor="1.16" vaporized=""/>
    <tripinfo id="N-S-sedan.0" depart="3.00" departLane="+N_1" departPos="5.10" departSpeed="0.00" departDelay="3.00" arrival="39.00" arrivalLane="-S_2" arrivalPos="100.00" arrivalSpeed="12.64" duration="36.00" routeLength="394.90" waitingTime="0.00" waitingCount="0" stopTime="0.00" timeLoss="5.00" rerouteNo="1" devices="tripinfo_N-S-sedan.0 routing_N-S-sedan.0" vType="sedan" speedFactor="0.94" vaporized=""/>
    <tripinfo id="E-N-sedan.1" depart="9.00" departLane="+E_1" departPos="5.10" departSpeed="0.00" departDelay="8.00" arrival="39.00" arrivalLane="-N_1" arrivalPos="100.00" arrivalSpeed="12.07" duration="30.00" routeLength="336.32" waitingTime="0.00" waitingCount="0" stopTime="0.00" timeLoss="3.71" rerouteNo="1" devices="tripinfo_E-N-sedan.1 routing_E-N-sedan.1" vType="sedan" speedFactor="0.93" vaporized=""/>
    <tripinfo id="N-S-sedan.1" depart="12.00" departLane="+N_1" departPos="5.10" departSpeed="0.00" departDelay="11.00" arrival="42.00" arrivalLane="-S_2" arrivalPos="100.00" arrivalSpeed="14.64" duration="30.00" routeLength="394.90" waitingTime="0.00" waitingCount="0" stopTime="0.00" timeLoss="4.14" rerouteNo="1" devices="tripinfo_N-S-sedan.1 routing_N-S-sedan.1" vType="sedan" speedFactor="1.12" vaporized=""/>
    <tripinfo id="S-N-sedan.1" depart="8.00" departLane="+S_1" departPos="5.10" departSpeed="0.00" departDelay="7.00" arrival="43.00" arrivalLane="-N_2" arrivalPos="100.00" arrivalSpeed="12.69" duration="35.00" routeLength="394.90" waitingTime="0.00" waitingCount="0" stopTime="0.00" timeLoss="4.24" rerouteNo="1" devices="tripinfo_S-N-sedan.1 routing_S-N-sedan.1" vType="sedan" speedFactor="0.94" vaporized=""/>
    <tripinfo id="N-W-sedan.1" depart="15.00" departLane="+N_1" departPos="5.10" departSpeed="0.00" departDelay="14.00" arrival="44.00" arrivalLane="-W_1" arrivalPos="100.00" arrivalSpeed="12.56" duration="29.00" routeLength="336.32" waitingTime="0.00" waitingCount="0" stopTime="0.00" timeLoss="4.05" rerouteNo="1" devices="tripinfo_N-W-sedan.1 routing_N-W-sedan.1" vType="sedan" speedFactor="0.99" vaporized=""/>
    <tripinfo id="E-W-sedan.0" depart="6.00" departLane="+E_1" departPos="5.10" departSpeed="0.00" departDelay="6.00" arrival="45.00" arrivalLane="-W_2" arrivalPos="100.00" arrivalSpeed="10.85" duration="39.00" routeLength="394.90" waitingTime="0.00" waitingCount="0" stopTime="0.00" timeLoss="4.63" rerouteNo="1" devices="tripinfo_E-W-sedan.0 routing_E-W-sedan.0" vType="sedan" speedFactor="0.83" vaporized=""/>
    <tripinfo id="W-E-sedan.1" depart="12.00" departLane="+W_1" departPos="5.10" departSpeed="0.00" departDelay="11.00" arrival="46.00" arrivalLane="-E_2" arrivalPos="100.00" arrivalSpeed="12.44" duration="34.00" routeLength="394.90" waitingTime="0.00" waitingCount="0" stopTime="0.00" timeLoss="3.98" rerouteNo="1" devices="tripinfo_W-E-sedan.1 routing_W-E-sedan.1" vType="sedan" speedFactor="0.97" vaporized=""/>
    <tripinfo id="W-S-sedan.1" depart="15.00" departLane="+W_1" departPos="5.10" departSpeed="0.00" departDelay="14.00" arrival="46.00" arrivalLane="-S_1" arrivalPos="100.00" arrivalSpeed="12.04" duration="31.00" routeLength="336.32" waitingTime="0.00" waitingCount="0" stopTime="0.00" timeLoss="3.45" rerouteNo="1" devices="tripinfo_W-S-sedan.1 routing_W-S-sedan.1" vType="sedan" speedFactor="0.89" vaporized=""/>
    <tripinfo id="S-N-sedan.2" depart="17.00" departLane="+S_1" departPos="5.10" departSpeed="0.00" departDelay="15.00" arrival="46.00" arrivalLane="-N_2" arrivalPos="100.00" arrivalSpeed="15.20" duration="29.00" routeLength="394.90" waitingTime="0.00" waitingCount="0" stopTime="0.00" timeLoss="4.30" rerouteNo="1" devices="tripinfo_S-N-sedan.2 routing_S-N-sedan.2" vType="sedan" speedFactor="1.18" vaporized=""/>
    <tripinfo id="S-E-sedan.2" depart="20.00" departLane="+S_1" departPos="5.10" departSpeed="0.00" departDelay="18.00" arrival="46.00" arrivalLane="-E_1" arrivalPos="100.00" arrivalSpeed="15.08" duration="26.00" routeLength="336.32" waitingTime="0.00" waitingCount="0" stopTime="0.00" timeLoss="4.81" rerouteNo="1" devices="tripinfo_S-E-sedan.2 routing_S-E-sedan.2" vType="sedan" speedFactor="1.15" vaporized=""/>
    <tripinfo id="N-E-sedan.0" depart="0.00" departLane="+N_1" departPos="5.10" departSpeed="0.00" departDelay="0.00" arrival="48.00" arrivalLane="-E_2" arrivalPos="100.00" arrivalSpeed="13.95" duration="48.00" routeLength="590.56" waitingTime="0.00" waitingCount="0" stopTime="0.00" timeLoss="7.32" rerouteNo="1" devices="tripinfo_N-E-sedan.0 routing_N-E-sedan.0" vType="sedan" speedFactor="1.06" vaporized=""/>
    <tripinfo id="E-N-sedan.2" depart="18.00" departLane="+E_1" departPos="5.10" departSpeed="0.00" departDelay="16.00" arrival="48.00" arrivalLane="-N_1" arrivalPos="100.00" arrivalSpeed="12.30" duration="30.00" routeLength="336.32" waitingTime="0.00" waitingCount="0" stopTime="0.00" timeLoss="4.46" rerouteNo="1" devices="tripinfo_E-N-sedan.2 routing_E-N-sedan.2" vType="sedan" speedFactor="0.95" vaporized=""/>
    <tripinfo id="E-W-sedan.1" depart="15.00" departLane="+E_1" departPos="5.10" departSpeed="0.00" departDelay="14.00" arrival="50.00" arrivalLane="-W_2" arrivalPos="100.00" arrivalSpeed="12.53" duration="35.00" routeLength="394.90" waitingTime="0.00" waitingCount="0" stopTime="0.00" timeLoss="4.57" rerouteNo="1" devices="tripinfo_E-W-sedan.1 routing_E-W-sedan.1" vType="sedan" speedFactor="0.94" vaporized=""/>
    <tripinfo id="E-S-sedan.0" depart="3.00" departLane="+E_1" departPos="5.10" departSpeed="0.00" departDelay="3.00" arrival="52.00" arrivalLane="-S_2" arrivalPos="100.00" arrivalSpeed="14.00" duration="49.00" routeLength="590.56" waitingTime="0.00" waitingCount="0" stopTime="0.00" timeLoss="6.95" rerouteNo="1" devices="tripinfo_E-S-sedan.0 routing_E-S-sedan.0" vType="sedan" speedFactor="1.03" vaporized=""/>
    <tripinfo id="W-N-sedan.1" depart="9.00" departLane="+W_1" departPos="5.10" departSpeed="0.00" departDelay="8.00" arrival="52.00" arrivalLane="-N_2" arrivalPos="100.00" arrivalSpeed="13.20" duration="43.00" routeLength="590.56" waitingTime="0.00" waitingCount="0" stopTime="0.00" timeLoss="6.31" rerouteNo="1" devices="tripinfo_W-N-sedan.1 routing_W-N-sedan.1" vType="sedan" speedFactor="1.01" vaporized=""/>
    <tripinfo id="W-S-sedan.2" depart="24.00" departLane="+W_1" departPos="5.10" departSpeed="0.00" departDelay="22.00" arrival="53.00" arrivalLane="-S_1" arrivalPos="100.00" arrivalSpeed="13.70" duration="29.00" routeLength="336.32" waitingTime="0.00" waitingCount="0" stopTime="0.00" timeLoss="4.72" rerouteNo="1" devices="tripinfo_W-S-sedan.2 routing_W-S-sedan.2" vType="sedan" speedFactor="1.02" vaporized=""/>
    <tripinfo id="N-W-sedan.2" depart="24.00" departLane="+N_1" departPos="5.10" departSpeed="0.00" departDelay="22.00" arrival="55.00" arrivalLane="-W_1" arrivalPos="100.00" arrivalSpeed="11.68" duration="31.00" routeLength="336.32" waitingTime="0.00" waitingCount="0" stopTime="0.00" timeLoss="4.51" rerouteNo="1" devices="tripinfo_N-W-sedan.2 routing_N-W-sedan.2" vType="sedan" speedFactor="0.92" vaporized=""/>
    <tripinfo id="W-E-sedan.2" depart="21.00" departLane="+W_1" departPos="5.10" departSpeed="0.00" departDelay="19.00" arrival="55.00" arrivalLane="-E_2" arrivalPos="100.00" arrivalSpeed="12.80" duration="34.00" routeLength="394.90" waitingTime="0.00" waitingCount="0" stopTime="0.00" timeLoss="4.61" rerouteNo="1" devices="tripinfo_W-E-sedan.2 routing_W-E-sedan.2" vType="sedan" speedFactor="0.99" vaporized=""/>
    <tripinfo id="W-N-sedan.0" depart="0.00" departLane="+W_1" departPos="5.10" departSpeed="0.00" departDelay="0.00" arrival="57.00" arrivalLane="-N_2" arrivalPos="100.00" arrivalSpeed="11.25" duration="57.00" routeLength="590.56" waitingTime="0.00" waitingCount="0" stopTime="0.00" timeLoss="7.09" rerouteNo="1" devices="tripinfo_W-N-sedan.0 routing_W-N-sedan.0" vType="sedan" speedFactor="0.86" vaporized=""/>
    <tripinfo id="N-E-sedan.1" depart="9.00" departLane="+N_1" departPos="5.10" departSpeed="0.00" departDelay="8.00" arrival="57.00" arrivalLane="-E_2" arrivalPos="100.00" arrivalSpeed="13.32" duration="48.00" routeLength="590.56" waitingTime="0.00" waitingCount="0" stopTime="0.00" timeLoss="6.96" rerouteNo="1" devices="tripinfo_N-E-sedan.1 routing_N-E-sedan.1" vType="sedan" speedFactor="1.05" vaporized=""/>
    <tripinfo id="N-S-sedan.2" depart="21.00" departLane="+N_1" departPos="5.10" departSpeed="0.00" departDelay="19.00" arrival="58.00" arrivalLane="-S_2" arrivalPos="100.00" arrivalSpeed="11.60" duration="37.00" routeLength="394.90" waitingTime="0.00" waitingCount="0" stopTime="0.00" timeLoss="4.19" rerouteNo="1" devices="tripinfo_N-S-sedan.2 routing_N-S-sedan.2" vType="sedan" speedFactor="0.87" vaporized=""/>
    <tripinfo id="E-N-sedan.3" depart="27.00" departLane="+E_1" departPos="5.10" departSpeed="0.00" departDelay="24.00" arrival="58.00" arrivalLane="-N_1" arrivalPos="100.00" arrivalSpeed="11.31" duration="31.00" routeLength="336.32" waitingTime="0.00" waitingCount="0" stopTime="0.00" timeLoss="3.87" rerouteNo="1" devices="tripinfo_E-N-sedan.3 routing_E-N-sedan.3" vType="sedan" speedFactor="0.90" vaporized=""/>
    <tripinfo id="S-W-sedan.0" depart="6.00" departLane="+S_1" departPos="5.10" departSpeed="0.00" departDelay="6.00" arrival="59.00" arrivalLane="-W_2" arrivalPos="100.00" arrivalSpeed="12.88" duration="53.00" routeLength="590.56" waitingTime="0.00" waitingCount="0" stopTime="0.00" timeLoss="6.70" rerouteNo="1" devices="tripinfo_S-W-sedan.0 routing_S-W-sedan.0" vType="sedan" speedFactor="0.94" vaporized=""/>
    <tripinfo id="N-W-sedan.3" depart="33.00" departLane="+N_1" departPos="5.10" departSpeed="0.00" departDelay="30.00" arrival="59.00" arrivalLane="-W_1" arrivalPos="100.00" arrivalSpeed="15.03" duration="26.00" routeLength="336.32" waitingTime="0.00" waitingCount="0" stopTime="0.00" timeLoss="3.77" rerouteNo="1" devices="tripinfo_N-W-sedan.3 routing_N-W-sedan.3" vType="sedan" speedFactor="1.10" vaporized=""/>
    <tripinfo id="S-N-sedan.3" depart="26.00" departLane="+S_1" departPos="5.10" departSpeed="0.00" departDelay="23.00" arrival="59.00" arrivalLane="-N_2" arrivalPos="100.00" arrivalSpeed="13.91" duration="33.00" routeLength="394.90" waitingTime="0.00" waitingCount="0" stopTime="0.00" timeLoss="6.32" rerouteNo="1" devices="tripinfo_S-N-sedan.3 routing_S-N-sedan.3" vType="sedan" speedFactor="1.09" vaporized=""/>
    <tripinfo id="S-E-sedan.3" depart="30.00" departLane="+S_1" departPos="5.10" departSpeed="0.00" departDelay="27.00" arrival="59.00" arrivalLane="-E_1" arrivalPos="100.00" arrivalSpeed="14.35" duration="29.00" routeLength="336.32" waitingTime="0.00" waitingCount="0" stopTime="0.00" timeLoss="4.71" rerouteNo="1" devices="tripinfo_S-E-sedan.3 routing_S-E-sedan.3" vType="sedan" speedFactor="1.04" vaporized=""/>
    <tripinfo id="N-S-sedan.3" depart="30.00" departLane="+N_1" departPos="5.10" departSpeed="0.00" departDelay="27.00" arrival="60.00" arrivalLane="-S_2" arrivalPos="100.00" arrivalSpeed="16.36" duration="30.00" routeLength="394.90" waitingTime="0.00" waitingCount="0" stopTime="0.00" timeLoss="5.27" rerouteNo="1" devices="tripinfo_N-S-sedan.3 routing_N-S-sedan.3" vType="sedan" speedFactor="1.18" vaporized=""/>
    <tripinfo id="E-W-sedan.2" depart="24.00" departLane="+E_1" departPos="5.10" departSpeed="0.00" departDelay="22.00" arrival="61.00" arrivalLane="-W_2" arrivalPos="100.00" arrivalSpeed="12.46" duration="37.00" routeLength="394.90" waitingTime="0.00" waitingCount="0" stopTime="0.00" timeLoss="5.62" rerouteNo="1" devices="tripinfo_E-W-sedan.2 routing_E-W-sedan.2" vType="sedan" speedFactor="0.93" vaporized=""/>
    <tripinfo id="E-N-sedan.4" depart="36.00" departLane="+E_1" departPos="5.10" departSpeed="0.00" departDelay="32.00" arrival="62.00" arrivalLane="-N_1" arrivalPos="100.00" arrivalSpeed="16.21" duration="26.00" routeLength="336.32" waitingTime="0.00" waitingCount="0" stopTime="0.00" timeLoss="4.54" rerouteNo="1" devices="tripinfo_E-N-sedan.4 routing_E-N-sedan.4" vType="sedan" speedFactor="1.17" vaporized=""/>
    <tripinfo id="S-W-sedan.1" depart="14.00" departLane="+S_1" departPos="5.10" departSpeed="0.00" departDelay="13.00" arrival="63.00" arrivalLane="-W_2" arrivalPos="100.00" arrivalSpeed="13.93" duration="49.00" routeLength="590.56" waitingTime="0.00" waitingCount="0" stopTime="0.00" timeLoss="6.52" rerouteNo="1" devices="tripinfo_S-W-sedan.1 routing_S-W-sedan.1" vType="sedan" speedFactor="1.02" vaporized=""/>
    <tripinfo id="W-N-sedan.2" depart="18.00" departLane="+W_1" departPos="5.10" departSpeed="0.00" departDelay="16.00" arrival="63.00" arrivalLane="-N_2" arrivalPos="100.00" arrivalSpeed="15.35" duration="45.00" routeLength="590.56" waitingTime="0.00" waitingCount="0" stopTime="0.00" timeLoss="8.67" rerouteNo="1" devices="tripinfo_W-N-sedan.2 routing_W-N-sedan.2" vType="sedan" speedFactor="1.17" vaporized=""/>
    <tripinfo id="W-E-sedan.3" depart="30.00" departLane="+W_1" departPos="5.10" departSpeed="0.00" departDelay="27.00" arrival="64.00" arrivalLane="-E_2" arrivalPos="100.00" arrivalSpeed="13.04" duration="34.00" routeLength="394.90" waitingTime="0.00" waitingCount="0" stopTime="0.00" timeLoss="4.77" rerouteNo="1" devices="tripinfo_W-E-sedan.3 routing_W-E-sedan.3" vType="sedan" speedFactor="1.00" vaporized=""/>
    <tripinfo id="W-S-sedan.3" depart="33.00" departLane="+W_1" departPos="5.10" departSpeed="0.00" departDelay="30.00" arrival="64.00" arrivalLane="-S_1" arrivalPos="100.00" arrivalSpeed="11.45" duration="31.00" routeLength="336.32" waitingTime="0.00" waitingCount="0" stopTime="0.00" timeLoss="4.02" rerouteNo="1" devices="tripinfo_W-S-sedan.3 routing_W-S-sedan.3" vType="sedan" speedFactor="0.90" vaporized=""/>
    <tripinfo id="E-W-sedan.3" depart="33.00" departLane="+E_1" departPos="5.10" departSpeed="0.00" departDelay="30.00" arrival="67.00" arrivalLane="-W_2" arrivalPos="100.00" arrivalSpeed="12.35" duration="34.00" routeLength="394.90" waitingTime="0.00" waitingCount="0" stopTime="0.00" timeLoss="3.67" rerouteNo="1" devices="tripinfo_E-W-sedan.3 routing_E-W-sedan.3" vType="sedan" speedFactor="0.96" vaporized=""/>
    <tripinfo id="E-S-sedan.1" depart="12.00" departLane="+E_1" departPos="5.10" departSpeed="0.00" departDelay="11.00" arrival="68.00" arrivalLane="-S_2" arrivalPos="100.00" arrivalSpeed="11.71" duration="56.00" routeLength="590.56" waitingTime="0.00" waitingCount="0" stopTime="0.00" timeLoss="7.25" rerouteNo="1" devices="tripinfo_E-S-sedan.1 routing_E-S-sedan.1" vType="sedan" speedFactor="0.88" vaporized=""/>
    <tripinfo id="S-E-sedan.4" depart="39.00" departLane="+S_1" departPos="5.10" departSpeed="0.00" departDelay="35.00" arrival="68.00" arrivalLane="-E_1" arrivalPos="100.00" arrivalSpeed="13.32" duration="29.00" routeLength="336.32" waitingTime="0.00" waitingCount="0" stopTime="0.00" timeLoss="4.67" rerouteNo="1" devices="tripinfo_S-E-sedan.4 routing_S-E-sedan.4" vType="sedan" speedFactor="1.00" vaporized=""/>
    <tripinfo id="S-W-sedan.2" depart="23.00" departLane="+S_1" departPos="5.10" departSpeed="0.00" departDelay="21.00" arrival="69.00" arrivalLane="-W_2" arrivalPos="100.00" arrivalSpeed="13.47" duration="46.00" routeLength="590.56" waitingTime="0.00" waitingCount="0" stopTime="0.00" timeLoss="8.80" rerouteNo="1" devices="tripinfo_S-W-sedan.2 routing_S-W-sedan.2" vType="sedan" speedFactor="1.01" vaporized=""/>
    <tripinfo id="S-N-sedan.4" depart="36.00" departLane="+S_1" departPos="5.10" departSpeed="0.00" departDelay="32.00" arrival="69.00" arrivalLane="-N_2" arrivalPos="100.00" arrivalSpeed="13.47" duration="33.00" routeLength="394.90" waitingTime="0.00" waitingCount="0" stopTime="0.00" timeLoss="3.75" rerouteNo="1" devices="tripinfo_S-N-sedan.4 routing_S-N-sedan.4" vType="sedan" speedFactor="1.00" vaporized=""/>
    <tripinfo id="E-S-sedan.2" depart="21.00" departLane="+E_1" departPos="5.10" departSpeed="0.00" departDelay="19.00" arrival="70.00" arrivalLane="-S_2" arrivalPos="100.00" arrivalSpeed="15.60" duration="49.00" routeLength="590.56" waitingTime="0.00" waitingCount="0" stopTime="0.00" timeLoss="10.68" rerouteNo="1" devices="tripinfo_E-S-sedan.2 routing_E-S-sedan.2" vType="sedan" speedFactor="1.13" vaporized=""/>
    <tripinfo id="W-E-sedan.4" depart="39.00" departLane="+W_1" departPos="5.10" departSpeed="0.00" departDelay="35.00" arrival="71.00" arrivalLane="-E_2" arrivalPos="100.00" arrivalSpeed="13.23" duration="32.00" routeLength="394.90" waitingTime="0.00" waitingCount="0" stopTime="0.00" timeLoss="4.13" rerouteNo="1" devices="tripinfo_W-E-sedan.4 routing_W-E-sedan.4" vType="sedan" speedFactor="1.02" vaporized=""/>
    <tripinfo id="W-S-sedan.4" depart="41.00" departLane="+W_1" departPos="5.10" departSpeed="0.00" departDelay="37.00" arrival="71.00" arrivalLane="-S_1" arrivalPos="100.00" arrivalSpeed="12.59" duration="30.00" routeLength="336.32" waitingTime="0.00" waitingCount="0" stopTime="0.00" timeLoss="4.12" rerouteNo="1" devices="tripinfo_W-S-sedan.4 routing_W-S-sedan.4" vType="sedan" speedFactor="0.97" vaporized=""/>
    <tripinfo id="E-W-sedan.4" depart="42.00" departLane="+E_1" departPos="5.10" departSpeed="0.00" departDelay="38.00" arrival="72.00" arrivalLane="-W_2" arrivalPos="100.00" arrivalSpeed="15.18" duration="30.00" routeLength="394.90" waitingTime="0.00" waitingCount="0" stopTime="0.00" timeLoss="3.94" rerouteNo="1" devices="tripinfo_E-W-sedan.4 routing_E-W-sedan.4" vType="sedan" speedFactor="1.10" vaporized=""/>
    <tripinfo id="E-S-sedan.3" depart="30.00" departLane="+E_1" departPos="5.10" departSpeed="0.00" departDelay="27.00" arrival="73.00" arrivalLane="-S_2" arrivalPos="100.00" arrivalSpeed="13.79" duration="43.00" routeLength="590.56" waitingTime="0.00" waitingCount="0" stopTime="0.00" timeLoss="6.67" rerouteNo="1" devices="tripinfo_E-S-sedan.3 routing_E-S-sedan.3" vType="sedan" speedFactor="1.03" vaporized=""/>
    <tripinfo id="W-N-sedan.3" depart="27.00" departLane="+W_1" departPos="5.10" departSpeed="0.00" departDelay="24.00" arrival="74.00" arrivalLane="-N_2" arrivalPos="100.00" arrivalSpeed="14.85" duration="47.00" routeLength="590.56" waitingTime="0.00" waitingCount="0" stopTime="0.00" timeLoss="7.22" rerouteNo="1" devices="tripinfo_W-N-sedan.3 routing_W-N-sedan.3" vType="sedan" speedFactor="1.09" vaporized=""/>
    <tripinfo id="E-N-sedan.5" depart="45.00" departLane="+E_1" departPos="5.10" departSpeed="0.00" departDelay="40.00" arrival="74.00" arrivalLane="-N_1" arrivalPos="100.00" arrivalSpeed="12.69" duration="29.00" routeLength="336.32" waitingTime="0.00" waitingCount="0" stopTime="0.00" timeLoss="4.18" rerouteNo="1" devices="tripinfo_E-N-sedan.5 routing_E-N-sedan.5" vType="sedan" speedFactor="0.99" vaporized=""/>
    <tripinfo id="N-W-sedan.4" depart="42.00" departLane="+N_1" departPos="5.10" departSpeed="0.00" departDelay="38.00" arrival="75.00" arrivalLane="-W_1" arrivalPos="100.00" arrivalSpeed="11.21" duration="33.00" routeLength="336.32" waitingTime="0.00" waitingCount="0" stopTime="0.00" timeLoss="4.41" rerouteNo="1" devices="tripinfo_N-W-sedan.4 routing_N-W-sedan.4" vType="sedan" speedFactor="0.85" vaporized=""/>
    <tripinfo id="N-E-sedan.2" depart="18.00" departLane="+N_1" departPos="5.10" departSpeed="0.00" departDelay="16.00" arrival="77.00" arrivalLane="-E_2" arrivalPos="100.00" arrivalSpeed="10.43" duration="59.00" routeLength="590.56" waitingTime="0.00" waitingCount="0" stopTime="0.00" timeLoss="6.70" rerouteNo="1" devices="tripinfo_N-E-sedan.2 routing_N-E-sedan.2" vType="sedan" speedFactor="0.83" vaporized=""/>
    <tripinfo id="N-S-sedan.4" depart="39.00" departLane="+N_1" departPos="5.10" departSpeed="0.00" departDelay="35.00" arrival="77.00" arrivalLane="-S_2" arrivalPos="100.00" arrivalSpeed="11.55" duration="38.00" routeLength="394.90" waitingTime="0.00" waitingCount="0" stopTime="0.00" timeLoss="3.97" rerouteNo="1" devices="tripinfo_N-S-sedan.4 routing_N-S-sedan.4" vType="sedan" speedFactor="0.85" vaporized=""/>
    <tripinfo id="N-E-sedan.3" depart="27.00" departLane="+N_1" departPos="5.10" departSpeed="0.00" departDelay="24.00" arrival="78.00" arrivalLane="-E_2" arrivalPos="100.00" arrivalSpeed="12.50" duration="51.00" routeLength="590.56" waitingTime="0.00" waitingCount="0" stopTime="0.00" timeLoss="7.32" rerouteNo="1" devices="tripinfo_N-E-sedan.3 routing_N-E-sedan.3" vType="sedan" speedFactor="0.97" vaporized=""/>
    <tripinfo id="N-S-sedan.5" depart="48.00" departLane="+N_1" departPos="5.10" departSpeed="0.00" departDelay="43.00" arrival="79.00" arrivalLane="-S_2" arrivalPos="100.00" arrivalSpeed="14.98" duration="31.00" routeLength="394.90" waitingTime="0.00" waitingCount="0" stopTime="0.00" timeLoss="4.87" rerouteNo="1" devices="tripinfo_N-S-sedan.5 routing_N-S-sedan.5" vType="sedan" speedFactor="1.12" vaporized=""/>
    <tripinfo id="N-W-sedan.5" depart="51.00" departLane="+N_1" departPos="5.10" departSpeed="0.00" departDelay="46.00" arrival="79.00" arrivalLane="-W_1" arrivalPos="100.00" arrivalSpeed="13.30" duration="28.00" routeLength="336.32" waitingTime="0.00" waitingCount="0" stopTime="0.00" timeLoss="4.00" rerouteNo="1" devices="tripinfo_N-W-sedan.5 routing_N-W-sedan.5" vType="sedan" speedFactor="1.02" vaporized=""/>
    <tripinfo id="S-E-sedan.5" depart="48.00" departLane="+S_1" departPos="5.10" departSpeed="0.00" departDelay="43.00" arrival="79.00" arrivalLane="-E_1" arrivalPos="100.00" arrivalSpeed="12.60" duration="31.00" routeLength="336.32" waitingTime="0.00" waitingCount="0" stopTime="0.00" timeLoss="3.86" rerouteNo="1" devices="tripinfo_S-E-sedan.5 routing_S-E-sedan.5" vType="sedan" speedFactor="0.91" vaporized=""/>
    <tripinfo id="W-S-sedan.5" depart="50.00" departLane="+W_1" departPos="5.10" departSpeed="0.00" departDelay="45.00" arrival="79.00" arrivalLane="-S_1" arrivalPos="100.00" arrivalSpeed="13.03" duration="29.00" routeLength="336.32" waitingTime="0.00" waitingCount="0" stopTime="0.00" timeLoss="3.84" rerouteNo="1" devices="tripinfo_W-S-sedan.5 routing_W-S-sedan.5" vType="sedan" speedFactor="0.97" vaporized=""/>
    <tripinfo id="W-E-sedan.5" depart="47.00" departLane="+W_1" departPos="5.10" departSpeed="0.00" departDelay="42.00" arrival="80.00" arrivalLane="-E_2" arrivalPos="100.00" arrivalSpeed="13.19" duration="33.00" routeLength="394.90" waitingTime="0.00" waitingCount="0" stopTime="0.00" timeLoss="4.92" rerouteNo="1" devices="tripinfo_W-E-sedan.5 routing_W-E-sedan.5" vType="sedan" speedFactor="1.02" vaporized=""/>
    <tripinfo id="S-N-sedan.5" depart="45.00" departLane="+S_1" departPos="5.10" departSpeed="0.00" departDelay="40.00" arrival="81.00" arrivalLane="-N_2" arrivalPos="100.00" arrivalSpeed="12.04" duration="36.00" routeLength="394.90" waitingTime="0.00" waitingCount="0" stopTime="0.00" timeLoss="4.38" rerouteNo="1" devices="tripinfo_S-N-sedan.5 routing_S-N-sedan.5" vType="sedan" speedFactor="0.91" vaporized=""/>
    <tripinfo id="S-W-sedan.3" depart="33.00" departLane="+S_1" departPos="5.10" departSpeed="0.00" departDelay="30.00" arrival="82.00" arrivalLane="-W_2" arrivalPos="100.00" arrivalSpeed="14.12" duration="49.00" routeLength="590.56" waitingTime="0.00" waitingCount="0" stopTime="0.00" timeLoss="7.60" rerouteNo="1" devices="tripinfo_S-W-sedan.3 routing_S-W-sedan.3" vType="sedan" speedFactor="1.04" vaporized=""/>
    <tripinfo id="W-N-sedan.4" depart="36.00" departLane="+W_1" departPos="5.10" departSpeed="0.00" departDelay="32.00" arrival="83.00" arrivalLane="-N_2" arrivalPos="100.00" arrivalSpeed="15.18" duration="47.00" routeLength="590.56" waitingTime="0.00" waitingCount="0" stopTime="0.00" timeLoss="9.11" rerouteNo="1" devices="tripinfo_W-N-sedan.4 routing_W-N-sedan.4" vType="sedan" speedFactor="1.14" vaporized=""/>
    <tripinfo id="E-N-sedan.6" depart="54.00" departLane="+E_1" departPos="5.10" departSpeed="0.00" departDelay="48.00" arrival="83.00" arrivalLane="-N_1" arrivalPos="100.00" arrivalSpeed="12.99" duration="29.00" routeLength="336.32" waitingTime="0.00" waitingCount="0" stopTime="0.00" timeLoss="3.93" rerouteNo="1" devices="tripinfo_E-N-sedan.6 routing_E-N-sedan.6" vType="sedan" speedFactor="0.98" vaporized=""/>
    <tripinfo id="S-E-sedan.6" depart="57.00" departLane="+S_1" departPos="5.10" departSpeed="0.00" departDelay="51.00" arrival="84.00" arrivalLane="-E_1" arrivalPos="100.00" arrivalSpeed="14.86" duration="27.00" routeLength="336.32" waitingTime="0.00" waitingCount="0" stopTime="0.00" timeLoss="4.28" rerouteNo="1" devices="tripinfo_S-E-sedan.6 routing_S-E-sedan.6" vType="sedan" speedFactor="1.09" vaporized=""/>
    <tripinfo id="S-N-sedan.6" depart="54.00" departLane="+S_1" departPos="5.10" departSpeed="0.00" departDelay="48.00" arrival="87.00" arrivalLane="-N_2" arrivalPos="100.00" arrivalSpeed="12.93" duration="33.00" routeLength="394.90" waitingTime="0.00" waitingCount="0" stopTime="0.00" timeLoss="4.60" rerouteNo="1" devices="tripinfo_S-N-sedan.6 routing_S-N-sedan.6" vType="sedan" speedFactor="1.01" vaporized=""/>
    <tripinfo id="E-S-sedan.4" depart="39.00" departLane="+E_1" departPos="5.10" departSpeed="0.00" departDelay="35.00" arrival="88.00" arrivalLane="-S_2" arrivalPos="100.00" arrivalSpeed="13.82" duration="49.00" routeLength="590.56" waitingTime="0.00" waitingCount="0" stopTime="0.00" timeLoss="6.78" rerouteNo="1" devices="tripinfo_E-S-sedan.4 routing_E-S-sedan.4" vType="sedan" speedFactor="1.02" vaporized=""/>
    <tripinfo id="E-W-sedan.5" depart="51.00" departLane="+E_1" departPos="5.10" departSpeed="0.00" departDelay="46.00" arrival="88.00" arrivalLane="-W_2" arrivalPos="100.00" arrivalSpeed="10.96" duration="37.00" routeLength="394.90" waitingTime="0.00" waitingCount="0" stopTime="0.00" timeLoss="4.63" rerouteNo="1" devices="tripinfo_E-W-sedan.5 routing_E-W-sedan.5" vType="sedan" speedFactor="0.88" vaporized=""/>