<?xml version="1.0" encoding="UTF-8"?>

<!-- generated on 2023-04-18 12:16:35 by Eclipse SUMO GUI Version 1.15.0
<configuration xmlns:xsi="http://www.w3.org/2001/XMLSchema-instance" xsi:noNamespaceSchemaLocation="http://sumo.dlr.de/xsd/sumoConfiguration.xsd">

    <input>
        <net-file value="Simulations\cloverleaf.net.xml"/>
        <route-files value="Simulations\unifiedDistribution.rou.xml"/>
    </input>

    <output>
        <tripinfo-output value="Simulations\output\cloverleaf\cloverleafTripinfo2.xml"/>
        <collision-output value="Simulations\output\cloverleaf\cloverleafCollision2.xml"/>
        <statistic-output value="Simulations\output\cloverleaf\cloverleafNetworkStats2.xml"/>
    </output>

</configuration>
-->

<tripinfos xmlns:xsi="http://www.w3.org/2001/XMLSchema-instance" xsi:noNamespaceSchemaLocation="http://sumo.dlr.de/xsd/tripinfo_file.xsd">
</tripinfos>
