<?xml version="1.0" encoding="UTF-8"?>

<!-- generated on 2023-04-18 12:24:21 by Eclipse SUMO GUI Version 1.15.0
<configuration xmlns:xsi="http://www.w3.org/2001/XMLSchema-instance" xsi:noNamespaceSchemaLocation="http://sumo.dlr.de/xsd/sumoConfiguration.xsd">

    <input>
        <net-file value="Z:\Users\708891\Desktop\APResearch\Simulations\singlePointUrban.net.xml"/>
        <route-files value="Z:\Users\708891\Desktop\APResearch\Simulations\unifiedDistribution.rou.xml"/>
    </input>

    <output>
        <tripinfo-output value="Z:\Users\708891\Desktop\APResearch\Simulations\output\singlePointUrban\singlePointUrbanTripinfo1.xml"/>
        <collision-output value="Z:\Users\708891\Desktop\APResearch\Simulations\output\singlePointUrban\singlePointUrbanCollision1.xml"/>
        <statistic-output value="Z:\Users\708891\Desktop\APResearch\Simulations\output\singlePointUrban\singlePointUrbanNetworkStats1.xml"/>
    </output>

</configuration>
-->

<tripinfos xmlns:xsi="http://www.w3.org/2001/XMLSchema-instance" xsi:noNamespaceSchemaLocation="http://sumo.dlr.de/xsd/tripinfo_file.xsd">
    <tripinfo id="E-N-sedan.0" depart="0.00" departLane="+E_1" departPos="5.10" departSpeed="0.00" departDelay="0.00" arrival="28.00" arrivalLane="-N_1" arrivalPos="100.00" arrivalSpeed="14.47" duration="28.00" routeLength="347.92" waitingTime="0.00" waitingCount="0" stopTime="0.00" timeLoss="4.24" rerouteNo="1" devices="tripinfo_E-N-sedan.0 routing_E-N-sedan.0" vType="sedan" speedFactor="1.08" vaporized=""/>
    <tripinfo id="S-N-sedan.0" depart="0.00" departLane="+S_1" departPos="5.10" departSpeed="0.00" departDelay="0.00" arrival="31.00" arrivalLane="-N_2" arrivalPos="100.00" arrivalSpeed="13.92" duration="31.00" routeLength="394.90" waitingTime="0.00" waitingCount="0" stopTime="0.00" timeLoss="3.76" rerouteNo="1" devices="tripinfo_S-N-sedan.0 routing_S-N-sedan.0" vType="sedan" speedFactor="1.05" vaporized=""/>
    <tripinfo id="W-E-sedan.0" depart="3.00" departLane="+W_1" departPos="5.10" departSpeed="0.00" departDelay="3.00" arrival="34.00" arrivalLane="-E_2" arrivalPos="100.00" arrivalSpeed="13.98" duration="31.00" routeLength="394.90" waitingTime="0.00" waitingCount="0" stopTime="0.00" timeLoss="4.65" rerouteNo="1" devices="tripinfo_W-E-sedan.0 routing_W-E-sedan.0" vType="sedan" speedFactor="1.09" vaporized=""/>
    <tripinfo id="N-W-sedan.0" depart="6.00" departLane="+N_1" departPos="5.10" departSpeed="0.00" departDelay="6.00" arrival="36.00" arrivalLane="-W_1" arrivalPos="100.00" arrivalSpeed="13.48" duration="30.00" routeLength="347.92" waitingTime="0.00" waitingCount="0" stopTime="0.00" timeLoss="5.21" rerouteNo="1" devices="tripinfo_N-W-sedan.0 routing_N-W-sedan.0" vType="sedan" speedFactor="1.01" vaporized=""/>
    <tripinfo id="S-E-sedan.0" depart="3.00" departLane="+S_1" departPos="5.10" departSpeed="0.00" departDelay="3.00" arrival="37.00" arrivalLane="-E_1" arrivalPos="100.00" arrivalSpeed="12.18" duration="34.00" routeLength="347.92" waitingTime="0.00" waitingCount="0" stopTime="0.00" timeLoss="5.20" rerouteNo="1" devices="tripinfo_S-E-sedan.0 routing_S-E-sedan.0" vType="sedan" speedFactor="0.89" vaporized=""/>
    <tripinfo id="W-S-sedan.0" depart="6.00" departLane="+W_1" departPos="5.10" departSpeed="0.00" departDelay="6.00" arrival="37.00" arrivalLane="-S_1" arrivalPos="100.00" arrivalSpeed="13.96" duration="31.00" routeLength="347.92" waitingTime="0.00" waitingCount="0" stopTime="0.00" timeLoss="6.22" rerouteNo="1" devices="tripinfo_W-S-sedan.0 routing_W-S-sedan.0" vType="sedan" speedFactor="1.03" vaporized=""/>
    <tripinfo id="S-E-sedan.1" depart="12.00" departLane="+S_1" departPos="5.10" departSpeed="0.00" departDelay="11.00" arrival="39.00" arrivalLane="-E_1" arrivalPos="100.00" arrivalSpeed="15.89" duration="27.00" routeLength="347.92" waitingTime="0.00" waitingCount="0" stopTime="0.00" timeLoss="4.72" rerouteNo="1" devices="tripinfo_S-E-sedan.1 routing_S-E-sedan.1" vType="sedan" speedFactor="1.16" vaporized=""/>
    <tripinfo id="E-N-sedan.1" depart="9.00" departLane="+E_1" departPos="5.10" departSpeed="0.00" departDelay="8.00" arrival="41.00" arrivalLane="-N_1" arrivalPos="100.00" arrivalSpeed="12.06" duration="32.00" routeLength="347.92" waitingTime="0.00" waitingCount="0" stopTime="0.00" timeLoss="4.05" rerouteNo="1" devices="tripinfo_E-N-sedan.1 routing_E-N-sedan.1" vType="sedan" speedFactor="0.93" vaporized=""/>
    <tripinfo id="E-S-sedan.0" depart="3.00" departLane="+E_1" departPos="5.10" departSpeed="0.00" departDelay="3.00" arrival="42.00" arrivalLane="-S_2" arrivalPos="100.00" arrivalSpeed="13.11" duration="39.00" routeLength="422.92" waitingTime="0.00" waitingCount="0" stopTime="0.00" timeLoss="9.09" rerouteNo="1" devices="tripinfo_E-S-sedan.0 routing_E-S-sedan.0" vType="sedan" speedFactor="1.03" vaporized=""/>
    <tripinfo id="W-N-sedan.0" depart="0.00" departLane="+W_1" departPos="5.10" departSpeed="0.00" departDelay="0.00" arrival="44.00" arrivalLane="-N_2" arrivalPos="100.00" arrivalSpeed="11.33" duration="44.00" routeLength="422.92" waitingTime="0.00" waitingCount="0" stopTime="0.00" timeLoss="8.15" rerouteNo="1" devices="tripinfo_W-N-sedan.0 routing_W-N-sedan.0" vType="sedan" speedFactor="0.86" vaporized=""/>
    <tripinfo id="E-W-sedan.0" depart="6.00" departLane="+E_1" departPos="5.10" departSpeed="0.00" departDelay="6.00" arrival="45.00" arrivalLane="-W_1" arrivalPos="100.00" arrivalSpeed="10.79" duration="39.00" routeLength="394.90" waitingTime="0.00" waitingCount="0" stopTime="0.00" timeLoss="4.61" rerouteNo="1" devices="tripinfo_E-W-sedan.0 routing_E-W-sedan.0" vType="sedan" speedFactor="0.83" vaporized=""/>
    <tripinfo id="W-N-sedan.1" depart="9.00" departLane="+W_1" departPos="5.10" departSpeed="0.00" departDelay="8.00" arrival="46.00" arrivalLane="-N_2" arrivalPos="100.00" arrivalSpeed="13.07" duration="37.00" routeLength="422.92" waitingTime="0.00" waitingCount="0" stopTime="0.00" timeLoss="6.25" rerouteNo="1" devices="tripinfo_W-N-sedan.1 routing_W-N-sedan.1" vType="sedan" speedFactor="1.01" vaporized=""/>
    <tripinfo id="N-W-sedan.1" depart="16.00" departLane="+N_1" departPos="5.10" departSpeed="0.00" departDelay="15.00" arrival="47.00" arrivalLane="-W_1" arrivalPos="100.00" arrivalSpeed="13.03" duration="31.00" routeLength="347.92" waitingTime="0.00" waitingCount="0" stopTime="0.00" timeLoss="5.26" rerouteNo="1" devices="tripinfo_N-W-sedan.1 routing_N-W-sedan.1" vType="sedan" speedFactor="0.99" vaporized=""/>
    <tripinfo id="W-E-sedan.1" depart="12.00" departLane="+W_1" departPos="5.10" departSpeed="0.00" departDelay="11.00" arrival="47.00" arrivalLane="-E_1" arrivalPos="100.00" arrivalSpeed="12.88" duration="35.00" routeLength="394.90" waitingTime="0.00" waitingCount="0" stopTime="0.00" timeLoss="5.26" rerouteNo="1" devices="tripinfo_W-E-sedan.1 routing_W-E-sedan.1" vType="sedan" speedFactor="0.97" vaporized=""/>
    <tripinfo id="E-N-sedan.2" depart="18.00" departLane="+E_1" departPos="5.10" departSpeed="0.00" departDelay="16.00" arrival="49.00" arrivalLane="-N_1" arrivalPos="100.00" arrivalSpeed="12.12" duration="31.00" routeLength="347.92" waitingTime="0.00" waitingCount="0" stopTime="0.00" timeLoss="3.93" rerouteNo="1" devices="tripinfo_E-N-sedan.2 routing_E-N-sedan.2" vType="sedan" speedFactor="0.95" vaporized=""/>
    <tripinfo id="S-E-sedan.2" depart="21.00" departLane="+S_1" departPos="5.10" departSpeed="0.00" departDelay="19.00" arrival="49.00" arrivalLane="-E_1" arrivalPos="100.00" arrivalSpeed="15.26" duration="28.00" routeLength="347.92" waitingTime="0.00" waitingCount="0" stopTime="0.00" timeLoss="5.99" rerouteNo="1" devices="tripinfo_S-E-sedan.2 routing_S-E-sedan.2" vType="sedan" speedFactor="1.15" vaporized=""/>
    <tripinfo id="W-N-sedan.2" depart="18.00" departLane="+W_1" departPos="5.10" departSpeed="0.00" departDelay="16.00" arrival="49.00" arrivalLane="-N_2" arrivalPos="100.00" arrivalSpeed="16.26" duration="31.00" routeLength="422.92" waitingTime="0.00" waitingCount="0" stopTime="0.00" timeLoss="4.43" rerouteNo="1" devices="tripinfo_W-N-sedan.2 routing_W-N-sedan.2" vType="sedan" speedFactor="1.17" vaporized=""/>
    <tripinfo id="E-W-sedan.1" depart="15.00" departLane="+E_1" departPos="5.10" departSpeed="0.00" departDelay="14.00" arrival="50.00" arrivalLane="-W_2" arrivalPos="100.00" arrivalSpeed="11.79" duration="35.00" routeLength="394.90" waitingTime="0.00" waitingCount="0" stopTime="0.00" timeLoss="4.69" rerouteNo="1" devices="tripinfo_E-W-sedan.1 routing_E-W-sedan.1" vType="sedan" speedFactor="0.94" vaporized=""/>
    <tripinfo id="E-S-sedan.1" depart="12.00" departLane="+E_1" departPos="5.10" departSpeed="0.00" departDelay="11.00" arrival="51.00" arrivalLane="-S_2" arrivalPos="100.00" arrivalSpeed="11.94" duration="39.00" routeLength="422.92" waitingTime="0.00" waitingCount="0" stopTime="0.00" timeLoss="3.98" rerouteNo="1" devices="tripinfo_E-S-sedan.1 routing_E-S-sedan.1" vType="sedan" speedFactor="0.88" vaporized=""/>
    <tripinfo id="E-S-sedan.2" depart="21.00" departLane="+E_1" departPos="5.10" departSpeed="0.00" departDelay="19.00" arrival="53.00" arrivalLane="-S_2" arrivalPos="100.00" arrivalSpeed="14.55" duration="32.00" routeLength="422.92" waitingTime="0.00" waitingCount="0" stopTime="0.00" timeLoss="5.08" rerouteNo="1" devices="tripinfo_E-S-sedan.2 routing_E-S-sedan.2" vType="sedan" speedFactor="1.13" vaporized=""/>
    <tripinfo id="W-S-sedan.1" depart="15.00" departLane="+W_1" departPos="5.10" departSpeed="0.00" departDelay="14.00" arrival="55.00" arrivalLane="-S_1" arrivalPos="100.00" arrivalSpeed="12.35" duration="40.00" routeLength="347.92" waitingTime="2.00" waitingCount="1" stopTime="0.00" timeLoss="10.94" rerouteNo="1" devices="tripinfo_W-S-sedan.1 routing_W-S-sedan.1" vType="sedan" speedFactor="0.89" vaporized=""/>
    <tripinfo id="W-E-sedan.2" depart="21.00" departLane="+W_1" departPos="5.10" departSpeed="0.00" departDelay="19.00" arrival="55.00" arrivalLane="-E_2" arrivalPos="100.00" arrivalSpeed="12.55" duration="34.00" routeLength="394.90" waitingTime="0.00" waitingCount="0" stopTime="0.00" timeLoss="4.62" rerouteNo="1" devices="tripinfo_W-E-sedan.2 routing_W-E-sedan.2" vType="sedan" speedFactor="0.99" vaporized=""/>
    <tripinfo id="W-S-sedan.2" depart="24.00" departLane="+W_1" departPos="5.10" departSpeed="0.00" departDelay="22.00" arrival="56.00" arrivalLane="-S_1" arrivalPos="100.00" arrivalSpeed="13.56" duration="32.00" routeLength="347.92" waitingTime="0.00" waitingCount="0" stopTime="0.00" timeLoss="7.27" rerouteNo="1" devices="tripinfo_W-S-sedan.2 routing_W-S-sedan.2" vType="sedan" speedFactor="1.02" vaporized=""/>
    <tripinfo id="N-W-sedan.2" depart="25.00" departLane="+N_1" departPos="5.10" departSpeed="0.00" departDelay="23.00" arrival="57.00" arrivalLane="-W_1" arrivalPos="100.00" arrivalSpeed="11.48" duration="32.00" routeLength="347.92" waitingTime="0.00" waitingCount="0" stopTime="0.00" timeLoss="4.60" rerouteNo="1" devices="tripinfo_N-W-sedan.2 routing_N-W-sedan.2" vType="sedan" speedFactor="0.92" vaporized=""/>
    <tripinfo id="E-W-sedan.2" depart="24.00" departLane="+E_1" departPos="5.10" departSpeed="0.00" departDelay="22.00" arrival="59.00" arrivalLane="-W_2" arrivalPos="100.00" arrivalSpeed="12.41" duration="35.00" routeLength="394.90" waitingTime="0.00" waitingCount="0" stopTime="0.00" timeLoss="3.96" rerouteNo="1" devices="tripinfo_E-W-sedan.2 routing_E-W-sedan.2" vType="sedan" speedFactor="0.93" vaporized=""/>
    <tripinfo id="S-E-sedan.3" depart="30.00" departLane="+S_1" departPos="5.10" departSpeed="0.00" departDelay="27.00" arrival="59.00" arrivalLane="-E_1" arrivalPos="100.00" arrivalSpeed="14.31" duration="29.00" routeLength="347.92" waitingTime="0.00" waitingCount="0" stopTime="0.00" timeLoss="4.73" rerouteNo="1" devices="tripinfo_S-E-sedan.3 routing_S-E-sedan.3" vType="sedan" speedFactor="1.04" vaporized=""/>
    <tripinfo id="E-N-sedan.3" depart="27.00" departLane="+E_1" departPos="5.10" departSpeed="0.00" departDelay="24.00" arrival="60.00" arrivalLane="-N_1" arrivalPos="100.00" arrivalSpeed="12.09" duration="33.00" routeLength="347.92" waitingTime="0.00" waitingCount="0" stopTime="0.00" timeLoss="4.28" rerouteNo="1" devices="tripinfo_E-N-sedan.3 routing_E-N-sedan.3" vType="sedan" speedFactor="0.90" vaporized=""/>
    <tripinfo id="W-N-sedan.3" depart="27.00" departLane="+W_1" departPos="5.10" departSpeed="0.00" departDelay="24.00" arrival="60.00" arrivalLane="-N_2" arrivalPos="100.00" arrivalSpeed="14.74" duration="33.00" routeLength="422.92" waitingTime="0.00" waitingCount="0" stopTime="0.00" timeLoss="4.16" rerouteNo="1" devices="tripinfo_W-N-sedan.3 routing_W-N-sedan.3" vType="sedan" speedFactor="1.09" vaporized=""/>
    <tripinfo id="N-W-sedan.3" depart="34.00" departLane="+N_1" departPos="5.10" departSpeed="0.00" departDelay="31.00" arrival="62.00" arrivalLane="-W_1" arrivalPos="100.00" arrivalSpeed="14.36" duration="28.00" routeLength="347.92" waitingTime="0.00" waitingCount="0" stopTime="0.00" timeLoss="5.08" rerouteNo="1" devices="tripinfo_N-W-sedan.3 routing_N-W-sedan.3" vType="sedan" speedFactor="1.10" vaporized=""/>
    <tripinfo id="E-N-sedan.4" depart="35.00" departLane="+E_1" departPos="5.10" departSpeed="0.00" departDelay="31.00" arrival="62.00" arrivalLane="-N_1" arrivalPos="100.00" arrivalSpeed="16.16" duration="27.00" routeLength="347.92" waitingTime="0.00" waitingCount="0" stopTime="0.00" timeLoss="5.00" rerouteNo="1" devices="tripinfo_E-N-sedan.4 routing_E-N-sedan.4" vType="sedan" speedFactor="1.17" vaporized=""/>
    <tripinfo id="N-E-sedan.0" depart="0.00" departLane="+N_1" departPos="5.10" departSpeed="0.00" departDelay="0.00" arrival="62.00" arrivalLane="-E_1" arrivalPos="100.00" arrivalSpeed="11.58" duration="62.00" routeLength="422.92" waitingTime="31.00" waitingCount="1" stopTime="0.00" timeLoss="39.69" rerouteNo="1" devices="tripinfo_N-E-sedan.0 routing_N-E-sedan.0" vType="sedan" speedFactor="1.06" vaporized="teleport"/>
    <tripinfo id="W-E-sedan.3" depart="30.00" departLane="+W_1" departPos="5.10" departSpeed="0.00" departDelay="27.00" arrival="63.00" arrivalLane="-E_2" arrivalPos="100.00" arrivalSpeed="13.77" duration="33.00" routeLength="394.90" waitingTime="0.00" waitingCount="0" stopTime="0.00" timeLoss="4.02" rerouteNo="1" devices="tripinfo_W-E-sedan.3 routing_W-E-sedan.3" vType="sedan" speedFactor="1.00" vaporized=""/>
    <tripinfo id="W-S-sedan.3" depart="33.00" departLane="+W_1" departPos="5.10" departSpeed="0.00" departDelay="30.00" arrival="66.00" arrivalLane="-S_1" arrivalPos="100.00" arrivalSpeed="11.30" duration="33.00" routeLength="347.92" waitingTime="0.00" waitingCount="0" stopTime="0.00" timeLoss="4.39" rerouteNo="1" devices="tripinfo_W-S-sedan.3 routing_W-S-sedan.3" vType="sedan" speedFactor="0.90" vaporized=""/>
    <tripinfo id="E-W-sedan.3" depart="32.00" departLane="+E_1" departPos="5.10" departSpeed="0.00" departDelay="29.00" arrival="67.00" arrivalLane="-W_2" arrivalPos="100.00" arrivalSpeed="12.98" duration="35.00" routeLength="394.90" waitingTime="0.00" waitingCount="0" stopTime="0.00" timeLoss="4.86" rerouteNo="1" devices="tripinfo_E-W-sedan.3 routing_E-W-sedan.3" vType="sedan" speedFactor="0.96" vaporized=""/>
    <tripinfo id="S-E-sedan.4" depart="39.00" departLane="+S_1" departPos="5.10" departSpeed="0.00" departDelay="35.00" arrival="70.00" arrivalLane="-E_1" arrivalPos="100.00" arrivalSpeed="13.54" duration="31.00" routeLength="347.92" waitingTime="0.00" waitingCount="0" stopTime="0.00" timeLoss="5.09" rerouteNo="1" devices="tripinfo_S-E-sedan.4 routing_S-E-sedan.4" vType="sedan" speedFactor="1.00" vaporized=""/>
    <tripinfo id="S-W-sedan.0" depart="6.00" departLane="+S_1" departPos="5.10" departSpeed="0.00" departDelay="6.00" arrival="71.00" arrivalLane="-W_1" arrivalPos="100.00" arrivalSpeed="12.06" duration="65.00" routeLength="422.92" waitingTime="22.00" waitingCount="1" stopTime="0.00" timeLoss="32.38" rerouteNo="1" devices="tripinfo_S-W-sedan.0 routing_S-W-sedan.0" vType="sedan" speedFactor="0.94" vaporized=""/>
    <tripinfo id="N-E-sedan.1" depart="9.00" departLane="+N_1" departPos="5.10" departSpeed="0.00" departDelay="8.00" arrival="72.00" arrivalLane="-E_1" arrivalPos="100.00" arrivalSpeed="14.40" duration="63.00" routeLength="422.92" waitingTime="20.00" waitingCount="1" stopTime="0.00" timeLoss="33.07" rerouteNo="1" devices="tripinfo_N-E-sedan.1 routing_N-E-sedan.1" vType="sedan" speedFactor="1.05" vaporized=""/>
    <tripinfo id="W-E-sedan.4" depart="39.00" departLane="+W_1" departPos="5.10" departSpeed="0.00" departDelay="35.00" arrival="72.00" arrivalLane="-E_2" arrivalPos="100.00" arrivalSpeed="13.25" duration="33.00" routeLength="394.90" waitingTime="0.00" waitingCount="0" stopTime="0.00" timeLoss="4.42" rerouteNo="1" devices="tripinfo_W-E-sedan.4 routing_W-E-sedan.4" vType="sedan" speedFactor="1.02" vaporized=""/>
    <tripinfo id="S-W-sedan.1" depart="15.00" departLane="+S_1" departPos="5.10" departSpeed="0.00" departDelay="14.00" arrival="73.00" arrivalLane="-W_1" arrivalPos="100.00" arrivalSpeed="13.59" duration="58.00" routeLength="422.92" waitingTime="15.00" waitingCount="1" stopTime="0.00" timeLoss="27.55" rerouteNo="1" devices="tripinfo_S-W-sedan.1 routing_S-W-sedan.1" vType="sedan" speedFactor="1.02" vaporized=""/>
    <tripinfo id="E-W-sedan.4" depart="42.00" departLane="+E_1" departPos="5.10" departSpeed="0.00" departDelay="38.00" arrival="73.00" arrivalLane="-W_2" arrivalPos="100.00" arrivalSpeed="15.19" duration="31.00" routeLength="394.90" waitingTime="0.00" waitingCount="0" stopTime="0.00" timeLoss="4.58" rerouteNo="1" devices="tripinfo_E-W-sedan.4 routing_E-W-sedan.4" vType="sedan" speedFactor="1.10" vaporized=""/>
    <tripinfo id="W-S-sedan.4" depart="42.00" departLane="+W_1" departPos="5.10" departSpeed="0.00" departDelay="38.00" arrival="73.00" arrivalLane="-S_1" arrivalPos="100.00" arrivalSpeed="12.86" duration="31.00" routeLength="347.92" waitingTime="0.00" waitingCount="0" stopTime="0.00" timeLoss="4.22" rerouteNo="1" devices="tripinfo_W-S-sedan.4 routing_W-S-sedan.4" vType="sedan" speedFactor="0.97" vaporized=""/>
    <tripinfo id="S-E-sedan.5" depart="48.00" departLane="+S_1" departPos="5.10" departSpeed="0.00" departDelay="43.00" arrival="72.00" arrivalLane="-E_1" arrivalPos="100.00" arrivalSpeed="9.04" duration="24.00" routeLength="347.92" waitingTime="0.00" waitingCount="0" stopTime="0.00" timeLoss="4.15" rerouteNo="1" devices="tripinfo_S-E-sedan.5 routing_S-E-sedan.5" vType="sedan" speedFactor="0.91" vaporized="teleport"/>
    <tripinfo id="S-W-sedan.2" depart="24.00" departLane="+S_1" departPos="5.10" departSpeed="0.00" departDelay="22.00" arrival="75.00" arrivalLane="-W_1" arrivalPos="100.00" arrivalSpeed="13.05" duration="51.00" routeLength="422.92" waitingTime="7.00" waitingCount="1" stopTime="0.00" timeLoss="19.99" rerouteNo="1" devices="tripinfo_S-W-sedan.2 routing_S-W-sedan.2" vType="sedan" speedFactor="1.01" vaporized=""/>
    <tripinfo id="E-N-sedan.5" depart="45.00" departLane="+E_1" departPos="5.10" departSpeed="0.00" departDelay="40.00" arrival="75.00" arrivalLane="-N_1" arrivalPos="100.00" arrivalSpeed="13.52" duration="30.00" routeLength="347.92" waitingTime="0.00" waitingCount="0" stopTime="0.00" timeLoss="4.17" rerouteNo="1" devices="tripinfo_E-N-sedan.5 routing_E-N-sedan.5" vType="sedan" speedFactor="0.99" vaporized=""/>
    <tripinfo id="N-E-sedan.2" depart="19.00" departLane="+N_1" departPos="5.10" departSpeed="0.00" departDelay="17.00" arrival="77.00" arrivalLane="-E_1" arrivalPos="100.00" arrivalSpeed="11.24" duration="58.00" routeLength="422.92" waitingTime="11.00" waitingCount="1" stopTime="0.00" timeLoss="20.84" rerouteNo="1" devices="tripinfo_N-E-sedan.2 routing_N-E-sedan.2" vType="sedan" speedFactor="0.83" vaporized=""/>
    <tripinfo id="N-W-sedan.4" depart="43.00" departLane="+N_1" departPos="5.10" departSpeed="0.00" departDelay="39.00" arrival="77.00" arrivalLane="-W_1" arrivalPos="100.00" arrivalSpeed="11.04" duration="34.00" routeLength="347.92" waitingTime="0.00" waitingCount="0" stopTime="0.00" timeLoss="4.62" rerouteNo="1" devices="tripinfo_N-W-sedan.4 routing_N-W-sedan.4" vType="sedan" speedFactor="0.85" vaporized=""/>
    <tripinfo id="N-E-sedan.3" depart="28.00" departLane="+N_1" departPos="5.10" departSpeed="0.00" departDelay="25.00" arrival="79.00" arrivalLane="-E_1" arrivalPos="100.00" arrivalSpeed="13.22" duration="51.00" routeLength="422.92" waitingTime="6.00" waitingCount="1" stopTime="0.00" timeLoss="19.10" rerouteNo="1" devices="tripinfo_N-E-sedan.3 routing_N-E-sedan.3" vType="sedan" speedFactor="0.97" vaporized=""/>
    <tripinfo id="S-W-sedan.3" depart="33.00" departLane="+S_1" departPos="5.10" departSpeed="0.00" departDelay="30.00" arrival="79.00" arrivalLane="-W_1" arrivalPos="100.00" arrivalSpeed="13.23" duration="46.00" routeLength="422.92" waitingTime="0.00" waitingCount="0" stopTime="0.00" timeLoss="16.42" rerouteNo="1" devices="tripinfo_S-W-sedan.3 routing_S-W-sedan.3" vType="sedan" speedFactor="1.04" vaporized=""/>
    <tripinfo id="N-E-sedan.4" depart="37.00" departLane="+N_1" departPos="5.10" departSpeed="0.00" departDelay="33.00" arrival="81.00" arrivalLane="-E_1" arrivalPos="100.00" arrivalSpeed="11.84" duration="44.00" routeLength="422.92" waitingTime="0.00" waitingCount="0" stopTime="0.00" timeLoss="8.71" rerouteNo="1" devices="tripinfo_N-E-sedan.4 routing_N-E-sedan.4" vType="sedan" speedFactor="0.88" vaporized=""/>
    <tripinfo id="W-E-sedan.5" depart="48.00" departLane="+W_1" departPos="5.10" departSpeed="0.00" departDelay="43.00" arrival="81.00" arrivalLane="-E_2" arrivalPos="100.00" arrivalSpeed="13.19" duration="33.00" routeLength="394.90" waitingTime="0.00" waitingCount="0" stopTime="0.00" timeLoss="4.67" rerouteNo="1" devices="tripinfo_W-E-sedan.5 routing_W-E-sedan.5" vType="sedan" speedFactor="1.02" vaporized=""/>
    <tripinfo id="W-S-sedan.5" depart="51.00" departLane="+W_1" departPos="5.10" departSpeed="0.00" departDelay="46.00" arrival="81.00" arrivalLane="-S_1" arrivalPos="100.00" arrivalSpeed="12.28" duration="30.00" routeLength="347.92" waitingTime="0.00" waitingCount="0" stopTime="0.00" timeLoss="3.80" rerouteNo="1" devices="tripinfo_W-S-sedan.5 routing_W-S-sedan.5" vType="sedan" speedFactor="0.97" vaporized=""/>
    <tripinfo id="S-W-sedan.4" depart="42.00" departLane="+S_1" departPos="5.10" departSpeed="0.00" departDelay="38.00" arrival="82.00" arrivalLane="-W_1" arrivalPos="100.00" arrivalSpeed="12.31" duration="40.00" routeLength="422.92" waitingTime="0.00" waitingCount="0" stopTime="0.00" timeLoss="5.29" rerouteNo="1" devices="tripinfo_S-W-sedan.4 routing_S-W-sedan.4" vType="sedan" speedFactor="0.90" vaporized=""/>
    <tripinfo id="N-E-sedan.5" depart="46.00" departLane="+N_1" departPos="5.10" departSpeed="0.00" departDelay="41.00" arrival="83.00" arrivalLane="-E_1" arrivalPos="100.00" arrivalSpeed="14.30" duration="37.00" routeLength="422.92" waitingTime="0.00" waitingCount="0" stopTime="0.00" timeLoss="8.00" rerouteNo="1" devices="tripinfo_N-E-sedan.5 routing_N-E-sedan.5" vType="sedan" speedFactor="1.08" vaporized=""/>
    <tripinfo id="N-W-sedan.5" depart="52.00" departLane="+N_1" departPos="5.10" departSpeed="0.00" departDelay="47.00" arrival="83.00" arrivalLane="-W_1" arrivalPos="100.00" arrivalSpeed="13.58" duration="31.00" routeLength="347.92" waitingTime="0.00" waitingCount="0" stopTime="0.00" timeLoss="6.14" rerouteNo="1" devices="tripinfo_N-W-sedan.5 routing_N-W-sedan.5" vType="sedan" speedFactor="1.02" vaporized=""/>
    <tripinfo id="E-N-sedan.6" depart="54.00" departLane="+E_1" departPos="5.10" departSpeed="0.00" departDelay="48.00" arrival="84.00" arrivalLane="-N_1" arrivalPos="100.00" arrivalSpeed="12.82" duration="30.00" routeLength="347.92" waitingTime="0.00" waitingCount="0" stopTime="0.00" timeLoss="4.21" rerouteNo="1" devices="tripinfo_E-N-sedan.6 routing_E-N-sedan.6" vType="sedan" speedFactor="0.98" vaporized=""/>
    <tripinfo id="S-E-sedan.6" depart="57.00" departLane="+S_1" departPos="5.10" departSpeed="0.00" departDelay="51.00" arrival="85.00" arrivalLane="-E_1" arrivalPos="100.00" arrivalSpeed="14.37" duration="28.00" routeLength="347.92" waitingTime="0.00" waitingCount="0" stopTime="0.00" timeLoss="4.59" rerouteNo="1" devices="tripinfo_S-E-sedan.6 routing_S-E-sedan.6" vType="sedan" speedFactor="1.09" vaporized=""/>
    <tripinfo id="S-W-sedan.5" depart="51.00" departLane="+S_1" departPos="5.10" departSpeed="0.00" departDelay="46.00" arrival="87.00" arrivalLane="-W_1" arrivalPos="100.00" arrivalSpeed="14.02" duration="36.00" routeLength="422.92" waitingTime="0.00" waitingCount="0" stopTime="0.00" timeLoss="5.76" rerouteNo="1" devices="tripinfo_S-W-sedan.5 routing_S-W-sedan.5" vType="sedan" speedFactor="1.04" vaporized=""/>
    <tripinfo id="E-W-sedan.5" depart="51.00" departLane="+E_1" departPos="5.10" departSpeed="0.00" departDelay="46.00" arrival="89.00" arrivalLane="-W_2" arrivalPos="100.00" arrivalSpeed="11.29" duration="38.00" routeLength="394.90" waitingTime="0.00" waitingCount="0" stopTime="0.00" timeLoss="5.13" rerouteNo="1" devices="tripinfo_E-W-sedan.5 routing_E-W-sedan.5" vType="sedan" speedFactor="0.88" vaporized=""/>
    <tripinfo id="W-E-sedan.6" depart="57.00" departLane="+W_1" departPos="5.10" departSpeed="0.00" departDelay="51.00" arrival="90.00" arrivalLane="-E_2" arrivalPos="100.00" arrivalSpeed="13.78" duration="33.00" routeLength="394.90" waitingTime="0.00" waitingCount="0" stopTime="0.00" timeLoss="4.85" rerouteNo="1" devices="tripinfo_W-E-sedan.6 routing_W-E-sedan.6" vType="sedan" speedFactor="1.02" vaporized=""/>
    <tripinfo id="W-S-sedan.6" depart="60.00" departLane="+W_1" departPos="5.10" departSpeed="0.00" departDelay="54.00" arrival="91.00" arrivalLane="-S_1" arrivalPos="100.00" arrivalSpeed="13.31" duration="31.00" routeLength="347.92" waitingTime="0.00" waitingCount="0" stopTime="0.00" timeLoss="4.27" rerouteNo="1" devices="tripinfo_W-S-sedan.6 routing_W-S-sedan.6" vType="sedan" speedFactor="0.97" vaporized=""/>
    <tripinfo id="E-N-sedan.7" depart="63.00" departLane="+E_1" departPos="5.10" departSpeed="0.00" departDelay="56.00" arrival="92.00" arrivalLane="-N_1" arrivalPos="100.00" arrivalSpeed="14.06" duration="29.00" routeLength="347.92" waitingTime="0.00" waitingCount="0" stopTime="0.00" timeLoss="4.58" rerouteNo="1" devices="tripinfo_E-N-sedan.7 routing_E-N-sedan.7" vType="sedan" speedFactor="1.04" vaporized=""/>
    <tripinfo id="N-S-sedan.0" depart="3.00" departLane="+N_1" departPos="5.10" departSpeed="0.00" departDelay="3.00" arrival="93.00" arrivalLane="-S_2" arrivalPos="100.00" arrivalSpeed="12.30" duration="90.00" routeLength="394.90" waitingTime="49.00" waitingCount="1" stopTime="0.00" timeLoss="59.62" rerouteNo="1" devices="tripinfo_N-S-sedan.0 routing_N-S-sedan.0" vType="sedan" speedFactor="0.94" vaporized=""/>
    <tripinfo id="S-N-sedan.1" depart="9.00" departLane="+S_1" departPos="5.10" departSpeed="0.00" departDelay="8.00" arrival="93.00" arrivalLane="-N_2" arrivalPos="100.00" arrivalSpeed="12.02" duration="84.00" routeLength="394.90" waitingTime="45.00" waitingCount="1" stopTime="0.00" timeLoss="53.40" rerouteNo="1" devices="tripinfo_S-N-sedan.1 routing_S-N-sedan.1" vType="sedan" speedFactor="0.94" vaporized=""/>
    <tripinfo id="N-W-sedan.6" depart="61.00" departLane="+N_1" departPos="5.10" departSpeed="0.00" departDelay="55.00" arrival="93.00" arrivalLane="-W_1" arrivalPos="100.00" arrivalSpeed="13.16" duration="32.00" routeLength="347.92" waitingTime="0.00" waitingCount="0" stopTime="0.00" timeLoss="5.56" rerouteNo="1" devices="tripinfo_N-W-sedan.6 routing_N-W-sedan.6" vType="sedan" speedFactor="0.96" vaporized=""/>
    <tripinfo id="E-W-sedan.6" depart="60.00" departLane="+E_1" departPos="5.10" departSpeed="0.00" departDelay="54.00" arrival="94.00" arrivalLane="-W_2" arrivalPos="100.00" arrivalSpeed="12.87" duration="34.00" routeLength="394.90" waitingTime="0.00" waitingCount="0" stopTime="0.00" timeLoss="4.62" rerouteNo="1" devices="tripinfo_E-W-sedan.6 routing_E-W-sedan.6" vType="sedan" speedFactor="0.98" vaporized=""/>
    <tripinfo id="N-S-sedan.1" depart="12.00" departLane="+N_1" departPos="5.10" departSpeed="0.00" departDelay="11.00" arrival="95.00" arrivalLane="-S_2" arrivalPos="100.00" arrivalSpeed="15.37" duration="83.00" routeLength="394.90" waitingTime="42.00" waitingCount="1" stopTime="0.00" timeLoss="57.04" rerouteNo="1" devices="tripinfo_N-S-sedan.1 routing_N-S-sedan.1" vType="sedan" speedFactor="1.12" vaporized=""/>
    <tripinfo id="S-N-sedan.2" depart="18.00" departLane="+S_1" departPos="5.10" departSpeed="0.00" departDelay="16.00" arrival="95.00" arrivalLane="-N_2" arrivalPos="100.00" arrivalSpeed="15.31" duration="77.00" routeLength="394.90" waitingTime="38.00" waitingCount="1" stopTime="0.00" timeLoss="52.11" rerouteNo="1" devices="tripinfo_S-N-sedan.2 routing_S-N-sedan.2" vType="sedan" speedFactor="1.18" vaporized=""/>
    <tripinfo id="S-N-sedan.3" depart="27.00" departLane="+S_1" departPos="5.10" departSpeed="0.00" departDelay="24.00" arrival="97.00" arrivalLane="-N_2" arrivalPos="100.00" arrivalSpeed="14.74" duration="70.00" routeLength="394.90" waitingTime="30.00" waitingCount="1" stopTime="0.00" timeLoss="43.01" rerouteNo="1" devices="tripinfo_S-N-sedan.3 routing_S-N-sedan.3" vType="sedan" speedFactor="1.09" vaporized=""/>
    <tripinfo id="W-E-sedan.7" depart="66.00" departLane="+W_1" departPos="5.10" departSpeed="0.00" departDelay="59.00" arrival="97.00" arrivalLane="-E_2" arrivalPos="100.00" arrivalSpeed="14.58" duration="31.00" routeLength="394.90" waitingTime="0.00" waitingCount="0" stopTime="0.00" timeLoss="4.54" rerouteNo="1" devices="tripinfo_W-E-sedan.7 routing_W-E-sedan.7" vType="sedan" speedFactor="1.09" vaporized=""/>